  Input file(s): qmc.in.xml 
================================================================
                        QMCPACK 4.1.0

          (c) Copyright 2003-2025 QMCPACK developers

                         Please cite:
      J. Kim et al. J. Phys. Cond. Mat. 30 195901 (2018)
           https://doi.org/10.1088/1361-648X/aab9c3
                             and
       P. Kent et al. J. Chem. Phys. 152 174105 (2020)
              https://doi.org/10.1063/5.0004860

  Git branch: HEAD
  Last git commit: c32123a5233186b177d75b800b86f1ad3b1a1413
  Last git commit date: Wed Apr 30 13:56:36 2025 -0400
  Last git commit subject: Merge pull request #5482 from QMCPACK/rc_410
================================================================
  Global options 

  Total number of MPI ranks = 64
  Number of MPI groups      = 1
  MPI group ID              = 0
  Number of ranks in group  = 64
  MPI ranks per node        = 2
  OMP 1st level threads     = 51
  OMP nested threading disabled or only 1 thread on the 2nd level

  Precision used in this calculation, see definitions in the manual:
  Base precision      = double
  Full precision      = double

  CPU only build
  Complex build. QMC_COMPLEX=ON
  Timer build option is enabled. Current timer level is coarse

=================================================
--- Memory usage report : when QMCPACK starts ---
=================================================
Available memory on node 0, free + buffers :  919331 MiB
Memory footprint by rank 0 on node 0       :     177 MiB
=================================================

  Input XML = qmc.in.xml

  Project = qmc
  date    = 2025-07-15 20:30:23 UTC
  host    = x4609c0s0b0n0

  hamiltonian has MPC. Will read density if it is found.


 Random Number
 -------------
  Offset for the random number seeds based on time: 607

  Range of prime numbers to use as seeds over processors and threads = 4483-36529


 Lattice
 -------
  Simulation cell radius   = 3.609377 bohr
  Wigner-Seitz cell radius = 3.609377 bohr

  Overwriting global supercell 
  Long-range breakup parameters:
    rc*kc = 15.000000; rc = 3.609377; kc = 4.155842; tol = 0.000300
  Long-range breakup parameters:
    rc*kc = 15.000000; rc = 3.609377; kc = 4.155842; tol = 0.000300
  KContainer initialised with cutoff 4.155842
   # of K-shell  = 254
   # of K points = 1464

  Lattice (bohr):      8.2770004600                 0                 0
                                  0      7.2187538300                 0
                                  0                 0     20.3901449700

  Boundary Conditions:  p  p  p 

  Volume (bohr^3) = 1218.3035925553

  Reciprocal vectors without 2*pi.
    g_1 =       0.1208167143                 0                 0
    g_2 =                  0      0.1385280650                 0
    g_3 =                  0                 0      0.0490433002

  Metric tensor in real-space.
    h_1 = 68.5087366148 0.0000000000 0.0000000000 
    h_2 = 0.0000000000 52.1104068581 0.0000000000 
    h_3 = 0.0000000000 0.0000000000 415.7580118976 

  Metric tensor in g-space.
    h_1 = 0.5762537678 0.0000000000 0.0000000000 
    h_2 = 0.0000000000 0.7575918129 0.0000000000 
    h_3 = 0.0000000000 0.0000000000 0.0949552780 

 Particle Set
 ------------
  Name: e   Offload : no

  All the species have the same mass 1.0000000000

  Creating Structure Factor for periodic systems 4.1558419509
  Particle set size: 40   Groups : 2


 Particle Set
 ------------
  Name: ion0   Offload : no

  Distinctive masses for each species 

  Creating Structure Factor for periodic systems 4.1558419509
  Particle set size: 8   Groups : 2


 Many-body wavefunction
 -------------------
  Name: psi0   Tasking: no

QMCPACK WARNING !!!!!!! Deprecated input style: creating SPO set inside determinantset. Support for this usage will soon be removed. SPO sets should be built outside using sposet_collection.
  Created SPOSet builder named 'einspline' of type einspline
QMCPACK WARNING !!!!!!! Deprecated input style: creating SPO set inside slaterdeterminant and nested determinant tags. Support for this usage will soon be removed. SPO sets should be built outside using sposet_collection.
      Create a new SPOSet updet

     Single particle orbitals (SPO)
     ------------------------------
      Name: updet   Type: spline   Builder class name: EinsplineSetBuilder

  TileMatrix = 
 [  1  0  0
    0  1  0
    0  0  1 ]
  Reading 20 orbitals from HDF5 file.
  HDF5 orbital file version 2.1.0
  Reading orbital file in ESHDF format.
  ESHDF orbital file version 2.1.0
  Lattice = 
    [  8.277000  0.000000  0.000000
       0.000000  7.218754  0.000000
       0.000000  0.000000 20.390145 ]
  SuperLattice = 
    [  8.277000  0.000000  0.000000
       0.000000  7.218754  0.000000
       0.000000  0.000000 20.390145 ]

bands=24, elecs=40, spins=2, twists=1
Atom type(0) = 32
Atom type(1) = 32
Atom type(2) = 32
Atom type(3) = 32
Atom type(4) = 34
Atom type(5) = 34
Atom type(6) = 34
Atom type(7) = 34
  Read 1077557 density G-vectors.
  EinsplineSetBuilder found density in the HDF5 file.
  EinsplineSetBuilder found density in the HDF5 file.
  Read 0 VHXC G-vectors.
TIMER  EinsplineSetBuilder::ReadOrbitalInfo 0.3181235830
TIMER  EinsplineSetBuilder::BroadcastOrbitalInfo 0.0333778500
Found 1 distinct supercell twist based on 1 primitive cell k-point
Super twist #0:  [   0.00000   0.00000   0.00000 ]
QMCPACK WARNING twist attribute does't exist but twistnum attribute was found. This is potentially ambiguous. Specifying twist attribute is preferred.
  Using supercell twist 0:  [   0.00000   0.00000   0.00000]
24 complex-valued orbitals supplied by h5 can be expanded up to 24 SPOs.
Sorting the bands now:
  Occupying bands based on energy in mode "excited"
We will read 20 distinct complex-valued orbitals from h5.
    Using complex valued spline SPOs with complex single precision storage (C2C).
    Running on CPU.
    Running on CPU.
BandInfoGroup::selectBands bigspace has 24 distinct orbitals 
BandInfoGroup::selectBands using distinct orbitals [0,20)
  Number of distinct bands 20
  First Band index 0
  First SPO index 0
  Size of SPOs 20
  ClassName = SplineC2C
  Using complex einspline table
NumDistinctOrbitals 20 numOrbs = 20
B-spline mesh factor is 1.0000000000
B-spline mesh size is (96, 84, 240)
Maxmimum number of Gvecs 134739
MEMORY 383 MB allocated for the coefficients in 3D spline orbital representation
Start transforming plane waves to 3D B-Splines.
  Time to gather the table = 1.0062067090
  SplineSetReader initialize_spline_pio 2.1417662700 sec
  Time to bcast the table = 0.1249966710
Time spent in creating B-spline SPOs 2.6169584020 sec
QMCPACK WARNING !!!!!!! Deprecated input style: creating SPO set inside slaterdeterminant and nested determinant tags. Support for this usage will soon be removed. SPO sets should be built outside using sposet_collection.
      Create a new SPOSet downdet

     Single particle orbitals (SPO)
     ------------------------------
      Name: downdet   Type: spline   Builder class name: EinsplineSetBuilder

24 complex-valued orbitals supplied by h5 can be expanded up to 24 SPOs.
Sorting the bands now:
  Occupying bands based on energy in mode "ground"
We will read 20 distinct complex-valued orbitals from h5.
    Running on CPU.
BandInfoGroup::selectBands bigspace has 24 distinct orbitals 
BandInfoGroup::selectBands using distinct orbitals [0,20)
  Number of distinct bands 20
  First Band index 0
  First SPO index 0
  Size of SPOs 20
  ClassName = SplineC2C
  Using complex einspline table
NumDistinctOrbitals 20 numOrbs = 20
B-spline mesh factor is 1.0000000000
B-spline mesh size is (96, 84, 240)
Maxmimum number of Gvecs 134739
MEMORY 383 MB allocated for the coefficients in 3D spline orbital representation
Start transforming plane waves to 3D B-Splines.
  Time to gather the table = 0.9894472680
  SplineSetReader initialize_spline_pio 1.3437959700 sec
  Time to bcast the table = 0.1262933490
Time spent in creating B-spline SPOs 1.5792840490 sec

   Single Slater determinant
   -------------------------

     Determinant
     -----------
      Name: updet   Spin group: 0   SPO name: updet

      Setting delay_rank to default value 1
      Using rank-1 Sherman-Morrison Fahy update (SM1)
      Running on CPU.


     Determinant
     -----------
      Name: downdet   Spin group: 1   SPO name: downdet

      Setting delay_rank to default value 1
      Using rank-1 Sherman-Morrison Fahy update (SM1)
      Running on CPU.

  Added a fermionic WaveFunctionComponent SlaterDet

   Jastrow
   -------
    Name: J1   Type: One-Body   Function: bspline

    Radial function for element: Ge - e
  The Jastrow cutoff specified is slightly larger than the Wigner-Seitz radius.  Setting to Wigner-Seitz radius = 3.6093769150.
     Number of parameters: 8
     Cusp: 0.0000000000
     Cutoff radius: 3.6093769150

      Name                        Value Type Use Index
     ----- ---------------------------- ---- --- -----
     eGe_0                -9.688511e-02    1  ON     0
     eGe_1                -9.790470e-02    1  ON     1
     eGe_2                -8.457755e-02    1  ON     2
     eGe_3                -5.550991e-02    1  ON     3
     eGe_4                -5.021120e-02    1  ON     4
     eGe_5                -3.683332e-02    1  ON     5
     eGe_6                -2.504956e-02    1  ON     6
     eGe_7                -1.945396e-02    1  ON     7

    Radial function for element: Se - e
  The Jastrow cutoff specified is slightly larger than the Wigner-Seitz radius.  Setting to Wigner-Seitz radius = 3.60938.
     Number of parameters: 8
     Cusp: 0
     Cutoff radius: 3.60938

      Name                        Value Type Use Index
     ----- ---------------------------- ---- --- -----
     eSe_0                -3.343073e-01    1  ON     0
     eSe_1                -3.835029e-01    1  ON     1
     eSe_2                -3.354165e-01    1  ON     2
     eSe_3                -2.811218e-01    1  ON     3
     eSe_4                -2.286217e-01    1  ON     4
     eSe_5                -1.577857e-01    1  ON     5
     eSe_6                -9.574937e-02    1  ON     6
     eSe_7                -5.280384e-02    1  ON     7


   Jastrow
   -------
    Name: J2   Type: Two-Body   Function: bspline

    Radial function for species: u - u
  The Jastrow cutoff specified is slightly larger than the Wigner-Seitz radius.  Setting to Wigner-Seitz radius = 3.60938.
     Number of parameters: 8
     Cusp: -0.25
     Cutoff radius: 3.60938

     Name                        Value Type Use Index
     ---- ---------------------------- ---- --- -----
     uu_0                 4.198597e-01    1  ON     0
     uu_1                 3.325221e-01    1  ON     1
     uu_2                 2.525813e-01    1  ON     2
     uu_3                 1.877378e-01    1  ON     3
     uu_4                 1.312653e-01    1  ON     4
     uu_5                 8.749162e-02    1  ON     5
     uu_6                 4.984236e-02    1  ON     6
     uu_7                 2.705749e-02    1  ON     7

    Radial function for species: u - d
  The Jastrow cutoff specified is slightly larger than the Wigner-Seitz radius.  Setting to Wigner-Seitz radius = 3.60938.
     Number of parameters: 8
     Cusp: -0.5
     Cutoff radius: 3.60938

     Name                        Value Type Use Index
     ---- ---------------------------- ---- --- -----
     ud_0                 7.021273e-01    1  ON     0
     ud_1                 5.251595e-01    1  ON     1
     ud_2                 3.835476e-01    1  ON     2
     ud_3                 2.701121e-01    1  ON     3
     ud_4                 1.805234e-01    1  ON     4
     ud_5                 1.137282e-01    1  ON     5
     ud_6                 6.254087e-02    1  ON     6
     ud_7                 3.210760e-02    1  ON     7


   Jastrow
   -------
    Name: J3   Type: eeI   Function: polynomial

     Ion: Ge   electron-electron: u - u
      Number of parameters for e-e: 3, for e-I: 3
      Cutoff radius: 3.60938

         Name                        Value Type Use Index
      ------- ---------------------------- ---- --- -----
       uuGe_0                -1.587068e-02    1  ON     0
       uuGe_1                 1.685280e-02    1  ON     1
       uuGe_2                -1.363176e-02    1  ON     2
       uuGe_3                 1.733907e-02    1  ON     3
       uuGe_4                -7.351527e-03    1  ON     4
       uuGe_5                -9.271318e-05    1  ON     5
       uuGe_6                -8.359848e-03    1  ON     6
       uuGe_7                -3.224475e-03    1  ON     7
       uuGe_8                 1.136972e-02    1  ON     8
       uuGe_9                -6.178180e-03    1  ON     9
      uuGe_10                -5.306022e-03    1  ON    10
      uuGe_11                -8.653791e-04    1  ON    11
      uuGe_12                 1.179820e-02    1  ON    12
      uuGe_13                 4.931856e-03    1  ON    13
      uuGe_14                -4.032763e-03    1  ON    14
      uuGe_15                -2.152597e-02    1  ON    15
      uuGe_16                -2.800817e-03    1  ON    16
      uuGe_17                -6.085400e-03    1  ON    17
      uuGe_18                -2.211596e-03    1  ON    18
      uuGe_19                 7.266616e-03    1  ON    19
      uuGe_20                -3.618985e-03    1  ON    20
      uuGe_21                -1.536496e-03    1  ON    21
      uuGe_22                 6.032158e-03    1  ON    22
      uuGe_23                -1.726316e-03    1  ON    23
      uuGe_24                 2.342224e-03    1  ON    24
      uuGe_25                 2.477214e-03    1  ON    25

  The eeI Jastrow cutoff specified is slightly larger than the Wigner-Seitz radius.  Setting to Wigner-Seitz radius = 3.60938.
     Ion: Ge   electron-electron: u - d
      Number of parameters for e-e: 3, for e-I: 3
      Cutoff radius: 3.60938

         Name                        Value Type Use Index
      ------- ---------------------------- ---- --- -----
       udGe_0                -4.635627e-02    1  ON     0
       udGe_1                 2.499272e-02    1  ON     1
       udGe_2                -4.565903e-02    1  ON     2
       udGe_3                 5.650691e-02    1  ON     3
       udGe_4                -2.694027e-02    1  ON     4
       udGe_5                -1.529926e-02    1  ON     5
       udGe_6                -6.482964e-03    1  ON     6
       udGe_7                -4.723471e-03    1  ON     7
       udGe_8                 2.293808e-02    1  ON     8
       udGe_9                -2.012595e-02    1  ON     9
      udGe_10                -1.380204e-02    1  ON    10
      udGe_11                -6.855829e-03    1  ON    11
      udGe_12                 3.177202e-02    1  ON    12
      udGe_13                 2.269862e-02    1  ON    13
      udGe_14                -1.937345e-02    1  ON    14
      udGe_15                -4.943892e-02    1  ON    15
      udGe_16                -1.578427e-02    1  ON    16
      udGe_17                -1.609366e-02    1  ON    17
      udGe_18                -2.336098e-03    1  ON    18
      udGe_19                 3.101296e-02    1  ON    19
      udGe_20                -2.312176e-02    1  ON    20
      udGe_21                -2.299187e-03    1  ON    21
      udGe_22                 2.544452e-02    1  ON    22
      udGe_23                -1.817100e-02    1  ON    23
      udGe_24                -4.046245e-03    1  ON    24
      udGe_25                -1.582838e-02    1  ON    25

  The eeI Jastrow cutoff specified is slightly larger than the Wigner-Seitz radius.  Setting to Wigner-Seitz radius = 3.60938.
     Ion: Se   electron-electron: u - u
      Number of parameters for e-e: 3, for e-I: 3
      Cutoff radius: 3.60938

         Name                        Value Type Use Index
      ------- ---------------------------- ---- --- -----
       uuSe_0                -3.014967e-02    1  ON     0
       uuSe_1                 1.321386e-02    1  ON     1
       uuSe_2                -2.202281e-02    1  ON     2
       uuSe_3                 3.931442e-02    1  ON     3
       uuSe_4                 2.324191e-04    1  ON     4
       uuSe_5                -2.028098e-03    1  ON     5
       uuSe_6                 5.725752e-03    1  ON     6
       uuSe_7                 5.272950e-03    1  ON     7
       uuSe_8                 5.496804e-03    1  ON     8
       uuSe_9                -7.466004e-03    1  ON     9
      uuSe_10                -1.318419e-02    1  ON    10
      uuSe_11                 2.564401e-03    1  ON    11
      uuSe_12                 1.245195e-02    1  ON    12
      uuSe_13                 2.288438e-02    1  ON    13
      uuSe_14                -1.523197e-03    1  ON    14
      uuSe_15                -3.031302e-02    1  ON    15
      uuSe_16                -1.474127e-02    1  ON    16
      uuSe_17                -1.559539e-02    1  ON    17
      uuSe_18                 2.075370e-03    1  ON    18
      uuSe_19                 2.414863e-02    1  ON    19
      uuSe_20                -3.235032e-02    1  ON    20
      uuSe_21                 5.692632e-03    1  ON    21
      uuSe_22                 2.750731e-02    1  ON    22
      uuSe_23                -2.994755e-02    1  ON    23
      uuSe_24                -7.482557e-03    1  ON    24
      uuSe_25                -2.300851e-02    1  ON    25

  The eeI Jastrow cutoff specified is slightly larger than the Wigner-Seitz radius.  Setting to Wigner-Seitz radius = 3.60938.
     Ion: Se   electron-electron: u - d
      Number of parameters for e-e: 3, for e-I: 3
      Cutoff radius: 3.60938

         Name                        Value Type Use Index
      ------- ---------------------------- ---- --- -----
       udSe_0                -6.770642e-02    1  ON     0
       udSe_1                 3.745439e-03    1  ON     1
       udSe_2                -3.387568e-02    1  ON     2
       udSe_3                 1.266811e-01    1  ON     3
       udSe_4                -4.261698e-02    1  ON     4
       udSe_5                -3.011109e-02    1  ON     5
       udSe_6                 3.601827e-02    1  ON     6
       udSe_7                 2.118483e-02    1  ON     7
       udSe_8                -2.982866e-02    1  ON     8
       udSe_9                -2.310063e-02    1  ON     9
      udSe_10                 1.091602e-02    1  ON    10
      udSe_11                 2.192911e-02    1  ON    11
      udSe_12                -7.601221e-03    1  ON    12
      udSe_13                 5.540758e-02    1  ON    13
      udSe_14                -6.510818e-03    1  ON    14
      udSe_15                -3.743959e-02    1  ON    15
      udSe_16                -3.018288e-02    1  ON    16
      udSe_17                 5.555199e-03    1  ON    17
      udSe_18                 3.571541e-02    1  ON    18
      udSe_19                 3.367939e-02    1  ON    19
      udSe_20                -8.491470e-02    1  ON    20
      udSe_21                 3.356652e-02    1  ON    21
      udSe_22                 3.829800e-02    1  ON    22
      udSe_23                -1.102447e-01    1  ON    23
      udSe_24                -2.682544e-02    1  ON    24
      udSe_25                -2.821196e-02    1  ON    25

  The eeI Jastrow cutoff specified is slightly larger than the Wigner-Seitz radius.  Setting to Wigner-Seitz radius = 3.60938.
  Wave function psi0 parameters:
       Name                        Value Type Use Index
    ------- ---------------------------- ---- --- -----
      eGe_0                -9.688511e-02    1  ON     0
      eGe_1                -9.790470e-02    1  ON     1
      eGe_2                -8.457755e-02    1  ON     2
      eGe_3                -5.550991e-02    1  ON     3
      eGe_4                -5.021120e-02    1  ON     4
      eGe_5                -3.683332e-02    1  ON     5
      eGe_6                -2.504956e-02    1  ON     6
      eGe_7                -1.945396e-02    1  ON     7
      eSe_0                -3.343073e-01    1  ON     8
      eSe_1                -3.835029e-01    1  ON     9
      eSe_2                -3.354165e-01    1  ON    10
      eSe_3                -2.811218e-01    1  ON    11
      eSe_4                -2.286217e-01    1  ON    12
      eSe_5                -1.577857e-01    1  ON    13
      eSe_6                -9.574937e-02    1  ON    14
      eSe_7                -5.280384e-02    1  ON    15
       uu_0                 4.198597e-01    1  ON    16
       uu_1                 3.325221e-01    1  ON    17
       uu_2                 2.525813e-01    1  ON    18
       uu_3                 1.877378e-01    1  ON    19
       uu_4                 1.312653e-01    1  ON    20
       uu_5                 8.749162e-02    1  ON    21
       uu_6                 4.984236e-02    1  ON    22
       uu_7                 2.705749e-02    1  ON    23
       ud_0                 7.021273e-01    1  ON    24
       ud_1                 5.251595e-01    1  ON    25
       ud_2                 3.835476e-01    1  ON    26
       ud_3                 2.701121e-01    1  ON    27
       ud_4                 1.805234e-01    1  ON    28
       ud_5                 1.137282e-01    1  ON    29
       ud_6                 6.254087e-02    1  ON    30
       ud_7                 3.210760e-02    1  ON    31
     uuGe_0                -1.587068e-02    1  ON    32
     uuGe_1                 1.685280e-02    1  ON    33
     uuGe_2                -1.363176e-02    1  ON    34
     uuGe_3                 1.733907e-02    1  ON    35
     uuGe_4                -7.351527e-03    1  ON    36
     uuGe_5                -9.271318e-05    1  ON    37
     uuGe_6                -8.359848e-03    1  ON    38
     uuGe_7                -3.224475e-03    1  ON    39
     uuGe_8                 1.136972e-02    1  ON    40
     uuGe_9                -6.178180e-03    1  ON    41
    uuGe_10                -5.306022e-03    1  ON    42
    uuGe_11                -8.653791e-04    1  ON    43
    uuGe_12                 1.179820e-02    1  ON    44
    uuGe_13                 4.931856e-03    1  ON    45
    uuGe_14                -4.032763e-03    1  ON    46
    uuGe_15                -2.152597e-02    1  ON    47
    uuGe_16                -2.800817e-03    1  ON    48
    uuGe_17                -6.085400e-03    1  ON    49
    uuGe_18                -2.211596e-03    1  ON    50
    uuGe_19                 7.266616e-03    1  ON    51
    uuGe_20                -3.618985e-03    1  ON    52
    uuGe_21                -1.536496e-03    1  ON    53
    uuGe_22                 6.032158e-03    1  ON    54
    uuGe_23                -1.726316e-03    1  ON    55
    uuGe_24                 2.342224e-03    1  ON    56
    uuGe_25                 2.477214e-03    1  ON    57
     udGe_0                -4.635627e-02    1  ON    58
     udGe_1                 2.499272e-02    1  ON    59
     udGe_2                -4.565903e-02    1  ON    60
     udGe_3                 5.650691e-02    1  ON    61
     udGe_4                -2.694027e-02    1  ON    62
     udGe_5                -1.529926e-02    1  ON    63
     udGe_6                -6.482964e-03    1  ON    64
     udGe_7                -4.723471e-03    1  ON    65
     udGe_8                 2.293808e-02    1  ON    66
     udGe_9                -2.012595e-02    1  ON    67
    udGe_10                -1.380204e-02    1  ON    68
    udGe_11                -6.855829e-03    1  ON    69
    udGe_12                 3.177202e-02    1  ON    70
    udGe_13                 2.269862e-02    1  ON    71
    udGe_14                -1.937345e-02    1  ON    72
    udGe_15                -4.943892e-02    1  ON    73
    udGe_16                -1.578427e-02    1  ON    74
    udGe_17                -1.609366e-02    1  ON    75
    udGe_18                -2.336098e-03    1  ON    76
    udGe_19                 3.101296e-02    1  ON    77
    udGe_20                -2.312176e-02    1  ON    78
    udGe_21                -2.299187e-03    1  ON    79
    udGe_22                 2.544452e-02    1  ON    80
    udGe_23                -1.817100e-02    1  ON    81
    udGe_24                -4.046245e-03    1  ON    82
    udGe_25                -1.582838e-02    1  ON    83
     uuSe_0                -3.014967e-02    1  ON    84
     uuSe_1                 1.321386e-02    1  ON    85
     uuSe_2                -2.202281e-02    1  ON    86
     uuSe_3                 3.931442e-02    1  ON    87
     uuSe_4                 2.324191e-04    1  ON    88
     uuSe_5                -2.028098e-03    1  ON    89
     uuSe_6                 5.725752e-03    1  ON    90
     uuSe_7                 5.272950e-03    1  ON    91
     uuSe_8                 5.496804e-03    1  ON    92
     uuSe_9                -7.466004e-03    1  ON    93
    uuSe_10                -1.318419e-02    1  ON    94
    uuSe_11                 2.564401e-03    1  ON    95
    uuSe_12                 1.245195e-02    1  ON    96
    uuSe_13                 2.288438e-02    1  ON    97
    uuSe_14                -1.523197e-03    1  ON    98
    uuSe_15                -3.031302e-02    1  ON    99
    uuSe_16                -1.474127e-02    1  ON   100
    uuSe_17                -1.559539e-02    1  ON   101
    uuSe_18                 2.075370e-03    1  ON   102
    uuSe_19                 2.414863e-02    1  ON   103
    uuSe_20                -3.235032e-02    1  ON   104
    uuSe_21                 5.692632e-03    1  ON   105
    uuSe_22                 2.750731e-02    1  ON   106
    uuSe_23                -2.994755e-02    1  ON   107
    uuSe_24                -7.482557e-03    1  ON   108
    uuSe_25                -2.300851e-02    1  ON   109
     udSe_0                -6.770642e-02    1  ON   110
     udSe_1                 3.745439e-03    1  ON   111
     udSe_2                -3.387568e-02    1  ON   112
     udSe_3                 1.266811e-01    1  ON   113
     udSe_4                -4.261698e-02    1  ON   114
     udSe_5                -3.011109e-02    1  ON   115
     udSe_6                 3.601827e-02    1  ON   116
     udSe_7                 2.118483e-02    1  ON   117
     udSe_8                -2.982866e-02    1  ON   118
     udSe_9                -2.310063e-02    1  ON   119
    udSe_10                 1.091602e-02    1  ON   120
    udSe_11                 2.192911e-02    1  ON   121
    udSe_12                -7.601221e-03    1  ON   122
    udSe_13                 5.540758e-02    1  ON   123
    udSe_14                -6.510818e-03    1  ON   124
    udSe_15                -3.743959e-02    1  ON   125
    udSe_16                -3.018288e-02    1  ON   126
    udSe_17                 5.555199e-03    1  ON   127
    udSe_18                 3.571541e-02    1  ON   128
    udSe_19                 3.367939e-02    1  ON   129
    udSe_20                -8.491470e-02    1  ON   130
    udSe_21                 3.356652e-02    1  ON   131
    udSe_22                 3.829800e-02    1  ON   132
    udSe_23                -1.102447e-01    1  ON   133
    udSe_24                -2.682544e-02    1  ON   134
    udSe_25                -2.821196e-02    1  ON   135

  Adding psi0 TrialWaveFunction to the pool

 Hamiltonian and observables
 ---------------------------
  Name: h0

  QMCHamiltonian::addOperator Kinetic to H, physical Hamiltonian 

   Pseudo Potential
   ----------------
    Name: PseudoPot   Wavefunction : psi0


  Adding pseudopotential for Se
   Linear grid  ri=0 rf=10 npts = 10001
    ECPComponentBuilder::buildSemiLocalAndLocal 
QMCPACK WARNING Nrule was not determined from qmcpack input or pseudopotential file. Setting sensible default.
    Assuming Hartree unit
 l-local setting found in pseudopotential file and used.
   Number of angular momentum channels 4
   Maximum angular momentum channel (Lmax) 3
   Creating a Linear Grid Rmax=3.085
  Using global grid with delta = 0.001
   Making L=3 a local potential with a radial cutoff of 9.999
  Quadrature Nrule: 4
    Non-local pseudopotential parameters
    Maximum angular momentum = 2
    Number of non-local channels = 3
       l(0)=0
       l(1)=1
       l(2)=2
    Cutoff radius = 3.085
    Number of spherical integration grid points = 12
    Spherical grid and weights: 
                        1                 0                 0       0.08333333333
                       -1   1.224646799e-16                 0       0.08333333333
             0.4472135955       0.894427191                 0       0.08333333333
            -0.4472135955      0.7236067977      0.5257311121       0.08333333333
             0.4472135955      0.2763932023      0.8506508084       0.08333333333
            -0.4472135955     -0.2763932023      0.8506508084       0.08333333333
             0.4472135955     -0.7236067977      0.5257311121       0.08333333333
            -0.4472135955      -0.894427191   1.095357397e-16       0.08333333333
             0.4472135955     -0.7236067977     -0.5257311121       0.08333333333
            -0.4472135955     -0.2763932023     -0.8506508084       0.08333333333
             0.4472135955      0.2763932023     -0.8506508084       0.08333333333
            -0.4472135955      0.7236067977     -0.5257311121       0.08333333333
    Maximum cutoff radius 3.085

  Adding pseudopotential for Ge
   Linear grid  ri=0 rf=10 npts = 10001
    ECPComponentBuilder::buildSemiLocalAndLocal 
QMCPACK WARNING Nrule was not determined from qmcpack input or pseudopotential file. Setting sensible default.
    Assuming Hartree unit
 l-local setting found in pseudopotential file and used.
   Number of angular momentum channels 4
   Maximum angular momentum channel (Lmax) 3
   Creating a Linear Grid Rmax=4.425
  Using global grid with delta = 0.001
   Making L=3 a local potential with a radial cutoff of 9.999
  Quadrature Nrule: 4
    Non-local pseudopotential parameters
    Maximum angular momentum = 2
    Number of non-local channels = 3
       l(0)=0
       l(1)=1
       l(2)=2
    Cutoff radius = 4.425
    Number of spherical integration grid points = 12
    Spherical grid and weights: 
                        1                 0                 0       0.08333333333
                       -1   1.224646799e-16                 0       0.08333333333
             0.4472135955       0.894427191                 0       0.08333333333
            -0.4472135955      0.7236067977      0.5257311121       0.08333333333
             0.4472135955      0.2763932023      0.8506508084       0.08333333333
            -0.4472135955     -0.2763932023      0.8506508084       0.08333333333
             0.4472135955     -0.7236067977      0.5257311121       0.08333333333
            -0.4472135955      -0.894427191   1.095357397e-16       0.08333333333
             0.4472135955     -0.7236067977     -0.5257311121       0.08333333333
            -0.4472135955     -0.2763932023     -0.8506508084       0.08333333333
             0.4472135955      0.2763932023     -0.8506508084       0.08333333333
            -0.4472135955      0.7236067977     -0.5257311121       0.08333333333
    Maximum cutoff radius 4.425

  Creating CoulombHandler with the Esler Optimized Breakup. 
  KContainer initialised with cutoff 17.64883115
   # of K-shell  = 15328
   # of K points = 113088

  NUMBER OF OPT_BREAK KVECS = 94506472937
 finding kc:  4.155841951 , 4.155841951
  LRBreakp parameter Kc =4.155841951
    Continuum approximation in k = [17.64883115,1662.33678)

   LR Breakup chi^2 = 2.32162e-16
   Constant of PBCAB 7.0533
    CoulombPBCAB::initBreakup
  Setting a linear grid=[0,3.6094) number of grid points =1001
  Rcut                3.6094
  Maximum K shell     253
  Number of k vectors 1464
    CoulombPBCAB::add 
 Setting a linear grid=[0,3.6094) number of grid =3610
    Creating the short-range pseudopotential for species 0
    CoulombPBCAB::add 
 Setting a linear grid=[0,3.6094) number of grid =3610
    Creating the short-range pseudopotential for species 1
  QMCHamiltonian::addOperator LocalECP to H, physical Hamiltonian 

  Using NonLocalECP potential 
    Maximum grid on a sphere for NonLocalECPotential: 12
    Using batched ratio computing in NonLocalECP
  QMCHamiltonian::addOperator NonLocalECP to H, physical Hamiltonian 

   Coulomb Potential
   -----------------
    Name: ElecElec   Type: AA   PBC: yes

  Clone CoulombHandler. 
   PBCAA self-interaction term -16.822
   PBCAA total constant -20.349
    CoulombPBCAA::initBreakup
  Setting a linear grid=[0,3.6094) number of grid points =1001
  Maximum K shell 253
  Number of k vectors 1464
  Fixed Coulomb potential for e
    e-e Madelung Const. =-0.072834012
    Vtot     =0
  QMCHamiltonian::addOperator ElecElec to H, physical Hamiltonian 
QMCHamiltonian::addOperatorType added type coulomb named ElecElec

   Coulomb Potential
   -----------------
    Name: IonIon   Type: AA   PBC: yes

  Clone CoulombHandler. 
   PBCAA self-interaction term -87.474138
   PBCAA total constant -91.000786
    CoulombPBCAA::initBreakup
  Setting a linear grid=[0,3.6093769) number of grid points =1001
Checking ion-ion Ewald energy against reference...
  Check passed.
  Maximum K shell 253
  Number of k vectors 1464
  Fixed Coulomb potential for ion0
    e-e Madelung Const. =-0.072834012
    Vtot     =-53.673864
  QMCHamiltonian::addOperator IonIon to H, physical Hamiltonian 
QMCHamiltonian::addOperatorType added type coulomb named IonIon

   MPC Potential
   -------------
    Name: MPC   Physical : no


  === Initializing MPC interaction === 
  Using 9563 G-vectors for MPC interaction.
   Using real-space box of size [40,32,100] for MPC spline.
    Linear extrap    = 1.877890975661e-01
    Quadratic extrap = 1.877890977519e-01
    Worst MPC discrepancy:
      Linear Extrap   : 1.44928973909925e-05
      Quadratic Extrap: 1.45369017627934e-05
  Constant potential = 1.610885522464e+02
  === MPC interaction initialized === 

  QMCHamiltonian::addOperator MPC to auxH 
QMCHamiltonian::addOperatorType added type MPC named MPC

  QMCHamiltonian::add2WalkerProperty added
    6 to P::PropertyList 
    0 to P::Collectables 
    starting Index of the observables in P::PropertyList = 9
ParticleSetPool::randomize 1 ParticleSet.
<init source="ion0" target="e">
</init>
  Initialization Execution time = 5.6268e+00 secs
=========================================================
 Summary of QMC systems 
=========================================================
ParticleSetPool has: 

  ParticleSet 'e' contains 40 particles :  u(20) d(20)

    u  9.2165422415e-01  3.2739256695e+00  1.7290972063e+01
    u  7.5643877544e+00  1.6965315102e+00  1.8065353548e+01
    u  2.4340235425e+00  1.0527622014e+00  6.5830993404e+00
    u  2.6337109550e+00  6.0065992715e-01  8.5744169877e+00
    u  6.3101618426e+00  6.1960470192e+00  3.3398732890e+00
    u  6.1464375873e+00  4.4357454186e+00  2.6471457811e+00
    u  4.2963512282e+00  4.4973884719e+00  1.1565919090e+01
    u  4.6661966447e+00  6.4981726156e+00  1.1538694064e+01
    u  4.4810082639e+00  2.9580177667e+00  1.9552383718e+00
    u  2.6387317799e+00  1.8495716522e+00  2.5344382261e+00
    (... and 30 more particle positions ...)

  Distance table for dissimilar particles (A-B):
    source: ion0  target: e
    Using structure-of-arrays (SoA) data layout
    Distance computations use orthorhombic periodic cell in 3D.

  Distance table for similar particles (A-A):
    source/target: e
    Using structure-of-arrays (SoA) data layout
    Distance computations use orthorhombic periodic cell in 3D.


  ParticleSet 'ion0' contains 8 particles :  Ge(4) Se(4)

    Ge  8.7736205000e-01  1.8046884600e+00  1.7922937430e+01
    Ge  3.2611381800e+00  1.8046884600e+00  7.7278649400e+00
    Ge  7.3996384100e+00  5.4140653700e+00  2.4672075400e+00
    Ge  5.0158622800e+00  5.4140653700e+00  1.2662280030e+01
    Se  4.1633312300e+00  1.8046884600e+00  3.0177414600e+00
    Se  8.2521694600e+00  1.8046884600e+00  1.3212813940e+01
    Se  4.1136692300e+00  5.4140653700e+00  1.7372403510e+01
    Se  2.4831000000e-02  5.4140653700e+00  7.1773310300e+00

  Distance table for similar particles (A-A):
    source/target: ion0
    Using structure-of-arrays (SoA) data layout
    Distance computations use orthorhombic periodic cell in 3D.


  Hamiltonian h0
  Kinetic         Kinetic energy
  LocalECP        CoulombPBCAB potential source: ion0
  NonLocalECP     NonLocalECPotential: ion0
  ElecElec        CoulombPBCAA potential: e_e
  IonIon          CoulombPBCAA potential: ion0_ion0


========================================
  Reading VMC driver XML input section
========================================
  Random walking with drift
 Legacy constructor adding a default LocalEnergyEstimator for the MainEstimator 
EstimatorManager setup for this section:
  Main Estimator:  LocalEnergy

=========================================================
  Start VMCBatched
  File Root qmc.s000
=========================================================
==============================================================
--- Memory usage report : VMCBatched before initialization ---
==============================================================
Available memory on node 0, free + buffers :  916753 MiB
Memory footprint by rank 0 on node 0       :    2132 MiB
==============================================================
QMCPACK WARNING Walkers per rank (32) not divisible by number of crowds (51). This will result in a loss of efficiency.
QMCPACK WARNING Using 3264 total walkers will divide evenly over both ranks and crowds.
VMCBatched Driver running with
             total_walkers     = 2048
             walkers_per_rank  = [32(x64)]
             num_crowds        = 51
  on rank 0, walkers_per_crowd = [1(x32), 0(x19)]

                         steps = 50
                        blocks = 20

===================================================================
--- Memory usage report : VMCBatched after initialLogEvaluation ---
===================================================================
Available memory on node 0, free + buffers :  916566 MiB
Memory footprint by rank 0 on node 0       :    2132 MiB
===================================================================
=====================================================
--- Memory usage report : VMCBatched after Warmup ---
=====================================================
Available memory on node 0, free + buffers :  916560 MiB
Memory footprint by rank 0 on node 0       :    2132 MiB
=====================================================
VMC Warmup completed in 2.5939e-01 secs
Completed block    1 of 20 average 0.4631 secs/block after 10.11 secs
Completed block    5 of 20 average 0.2048 secs/block after 10.69 secs
Completed block   10 of 20 average 0.1728 secs/block after 11.4 secs
Completed block   15 of 20 average 0.1688 secs/block after 12.2 secs
Completed block   20 of 20 average 0.1661 secs/block after 13 secs
====================================================
  End of a VMC section
    QMC counter        = 0
    time step          = 0.3
    reference energy   = -52.5931
    reference variance = 1.37713
====================================================
=============================================
--- Memory usage report : VMCBatched ends ---
=============================================
Available memory on node 0, free + buffers :  916553 MiB
Memory footprint by rank 0 on node 0       :    2132 MiB
=============================================
  Carry over 2048 walker configurations to the next QMC driver.
  VMCBatched Execution time = 4.4078e+00 secs

========================================
  Reading DMC driver XML input section
========================================
  Using Non-local T-moves v3, an approximation to v1
 Legacy constructor adding a default LocalEnergyEstimator for the MainEstimator 
EstimatorManager setup for this section:
  Main Estimator:  LocalEnergy

=========================================================
  Start DMCBatched
  File Root qmc.s001
=========================================================
==============================================================
--- Memory usage report : DMCBatched before initialization ---
==============================================================
Available memory on node 0, free + buffers :  916792 MiB
Memory footprint by rank 0 on node 0       :    2132 MiB
==============================================================
QMCPACK WARNING Total walkers (2024) is not divisible by number of ranks (64). This will result in a loss of efficiency.
QMCPACK WARNING Walkers per rank (32) not divisible by number of crowds (51). This will result in a loss of efficiency.
QMCPACK WARNING Using 3264 total walkers will divide evenly over both ranks and crowds.
DMCBatched Driver running with
             total_walkers     = 2024
             walkers_per_rank  = [32(x40), 31(x24)]
             num_crowds        = 51
  on rank 0, walkers_per_crowd = [1(x32), 0(x19)]

                         steps = 20
                        blocks = 200

  Creating the branching engine and walker controler
    Reference energy is updated using the unlimited_history scheme
  WalkerControl parameters 
    maxCopy = 2
    Max Walkers per MPI rank 63
    Min Walkers per MPI rank 7
    Using non-blocking send/recv
  Fluctuating population
  Persistent walkers are killed after 10 MC sweeps
  BranchInterval = 1
  Steps per block = 20
  Number of blocks = 200

  DMC Engine Initialization = 1.4267e-03 secs
  START ALL OVER 
  QMC counter             = -1
  time step               = 5.0000e-03
  effective time step     = 5.0000e-03
  trial energy            = -5.2617e+01
  reference energy        = -5.2617e+01
  reference variance      = 1.3259e+00
  Feedback                = 1.0000e+00
  target walkers          = 2024
  branching cutoff scheme = classic
  branch cutoff, max      = 5.0000e+01 7.5000e+01
  QMC Status (BranchMode) = 0000001101
===================================================================
--- Memory usage report : DMCBatched after initialLogEvaluation ---
===================================================================
Available memory on node 0, free + buffers :  916791 MiB
Memory footprint by rank 0 on node 0       :    2132 MiB
===================================================================
Completed block    1 of 200 average 0.316 secs/block after 13.74 secs

 Warmup is completed after 1000

  TauEff     = 4.9958e-03
 TauEff/Tau = 9.9916e-01
  Etrial     = -5.2865e+01
 Population average of energy = -5.2952e+01
                  Variance = 1.1083e+00
branch cutoff = 1.1083e+01 1.6625e+01
Completed block   50 of 200 average 0.07644 secs/block after 17.36 secs
Completed block  100 of 200 average 0.07435 secs/block after 21.05 secs
Completed block  150 of 200 average 0.07352 secs/block after 24.71 secs
Completed block  200 of 200 average 0.07335 secs/block after 28.43 secs
====================================================
  End of a DMC section
    QMC counter                   = -1
    time step                     = 0.005
    effective time step           = 0.00499577
    trial energy                  = -53.0154
    reference energy              = -52.9707
    reference variance            = 1.10832
    target walkers                = 2024
    branch cutoff                 = 11.0832 16.6249
    Feedback                      = 1
    QMC Status (BranchMode)       = 0000001111
====================================================
=============================================
--- Memory usage report : DMCBatched ends ---
=============================================
Available memory on node 0, free + buffers :  916786 MiB
Memory footprint by rank 0 on node 0       :    2132 MiB
=============================================
  Carry over 2114 walker configurations to the next QMC driver.
  DMCBatched Execution time = 1.5295e+01 secs
  Total Execution time = 1.9710e+01 secs

=========================================================
  A new xml input file : qmc.s001.cont.xml

Use --enable-timers=<value> command line option to increase or decrease level of timing information
Stack timer profile
Timer         Inclusive_time  Exclusive_time  Calls       Time_per_call
Total           27.5215     0.0080              1      27.521539657
  DMCBatched    15.2945    15.2945              1      15.294533063
  Startup        7.8113     7.8113              1       7.811263126
  VMCBatched     4.4078     4.4078              1       4.407789594

QMCPACK execution completed successfully
