
     Program PWSCF v.7.4.1 starts on 16Jul2025 at  0:39: 4 
        Git branch: HEAD
        Last git commit: 500de340b820e1cb8c05f2d8bb8fced102f377c1
        Last git commit date: Fri Feb 7 14:59:05 2025 +0000
        Last git commit subject: Merge branch 'qe-7.4.1' into 'master'

     This program is part of the open-source Quantum ESPRESSO suite
     for quantum simulation of materials; please cite
         "P. Giannozzi et al., J. Phys.:Condens. Matter 21 395502 (2009);
         "P. Giannozzi et al., J. Phys.:Condens. Matter 29 465901 (2017);
         "P. Giannozzi et al., J. Chem. Phys. 152 154105 (2020);
          URL http://www.quantum-espresso.org", 
     in publications or presentations arising from this work. More details at
     http://www.quantum-espresso.org/quote

     Parallel version (MPI & OpenMP), running on    3328 processor cores
     Number of MPI processes:               832
     Threads/MPI process:                     4

     MPI processes distributed on    32 nodes
     879668 MiB available memory on the printing compute node when the environment starts
 
     Reading input from scf.in

     Current dimensions of program PWSCF are:
     Max number of different atomic species (ntypx) = 10
     Max number of k-points (npk) =  40000
     Max angular momentum in pseudopotentials (lmaxx) =  4
scan_end: No INFO end statement, corrupted file?
scan_end: No INFO end statement, corrupted file?

     IMPORTANT: XC functional enforced from input :
     Exchange-correlation= PBE
                           (   1   4   3   4   0   0   0)
     Any further DFT definition will be discarded
     Please, verify this is what you really want

     Message from routine setup:
     using ibrav=0 with symmetry is DISCOURAGED, use correct ibrav instead
 
     K-points division:     npool     =       4
     R & G space division:  proc/nbgrp/npool/nimage =     208
     Subspace diagonalization in iterative solution of the eigenvalue problem:
     a serial algorithm will be used

 
     Parallelization info
     --------------------
     sticks:   dense  smooth     PW     G-vecs:    dense   smooth      PW
     Min          32      32      8                10576    10576    1422
     Max          33      33      9                10631    10631    1483
     Sum        6813    6813   1807              2206181  2206181  301769
 
     Using Slab Decomposition
 


     bravais-lattice index     =            0
     lattice parameter (alat)  =       8.3200  a.u.
     unit-cell volume          =    2493.7967 (a.u.)^3
     number of atoms/cell      =            4
     number of atomic types    =            2
     number of electrons       =        20.00
     number of Kohn-Sham states=           14
     kinetic-energy cutoff     =     350.0000  Ry
     charge density cutoff     =    1400.0000  Ry
     scf convergence threshold =      1.0E-06
     mixing beta               =       0.5000
     number of iterations used =            8  plain     mixing
     Exchange-correlation= PBE
                           (   1   4   3   4   0   0   0)

     celldm(1)=   8.320001  celldm(2)=   0.000000  celldm(3)=   0.000000
     celldm(4)=   0.000000  celldm(5)=   0.000000  celldm(6)=   0.000000

     crystal axes: (cart. coord. in units of alat)
               a(1) = (   1.000000   0.000000   0.000000 )  
               a(2) = (   0.000000   0.883413   0.000000 )  
               a(3) = (   0.000000   0.000000   4.901477 )  

     reciprocal axes: (cart. coord. in units 2 pi/alat)
               b(1) = (  1.000000  0.000000  0.000000 )  
               b(2) = (  0.000000  1.131973  0.000000 )  
               b(3) = (  0.000000  0.000000  0.204020 )  


     PseudoPot. # 1 for Ge read from file:
     ./Ge.ccECP.upf
     MD5 check sum: adc484e85c05e28535f307d63fefdf4c
     Pseudo is Norm-conserving, Zval =  4.0
     Generated by new atomic code, or converted to UPF format
     Using radial grid of 1165 points,  2 beta functions with: 
                l(1) =   0
                l(2) =   2

     PseudoPot. # 2 for Se read from file:
     ./Se.ccECP.upf
     MD5 check sum: ed96248b8b63a926de99498f0ddda5f0
     Pseudo is Norm-conserving, Zval =  6.0
     Generated by new atomic code, or converted to UPF format
     Using radial grid of 1167 points,  2 beta functions with: 
                l(1) =   1
                l(2) =   2

     atomic species   valence    mass     pseudopotential
     Ge                4.00    72.61000     Ge( 1.00)
     Se                6.00    78.96000     Se( 1.00)

     Starting magnetic structure 
     atomic species   magnetization
     Ge              0.200
     Se              0.000

      4 Sym. Ops. (no inversion) found ( 3 have fractional translation)



   Cartesian axes

     site n.     atom                  positions (alat units)
         1        Ge     tau(   1) = (   0.4000000   0.2208534   2.7472777  )
         2        Ge     tau(   2) = (   0.9000000   0.6625601   2.1541990  )
         3        Se     tau(   3) = (   0.5000000   0.2208534   2.1899798  )
         4        Se     tau(   4) = (   0.0000000   0.6625601   2.7114970  )

     number of k points=    49  Fermi-Dirac smearing, width (Ry)=  0.0010
                       cart. coord. in units 2pi/alat
        k(    1) = (   0.0000000   0.0000000   0.0000000), wk =   0.0069444
        k(    2) = (   0.0000000   0.0943311   0.0000000), wk =   0.0138889
        k(    3) = (   0.0000000   0.1886621   0.0000000), wk =   0.0138889
        k(    4) = (   0.0000000   0.2829932   0.0000000), wk =   0.0138889
        k(    5) = (   0.0000000   0.3773243   0.0000000), wk =   0.0138889
        k(    6) = (   0.0000000   0.4716553   0.0000000), wk =   0.0138889
        k(    7) = (   0.0000000  -0.5659864   0.0000000), wk =   0.0069444
        k(    8) = (   0.0833333   0.0000000   0.0000000), wk =   0.0138889
        k(    9) = (   0.0833333   0.0943311   0.0000000), wk =   0.0277778
        k(   10) = (   0.0833333   0.1886621   0.0000000), wk =   0.0277778
        k(   11) = (   0.0833333   0.2829932   0.0000000), wk =   0.0277778
        k(   12) = (   0.0833333   0.3773243   0.0000000), wk =   0.0277778
        k(   13) = (   0.0833333   0.4716553   0.0000000), wk =   0.0277778
        k(   14) = (   0.0833333  -0.5659864   0.0000000), wk =   0.0138889
        k(   15) = (   0.1666667   0.0000000   0.0000000), wk =   0.0138889
        k(   16) = (   0.1666667   0.0943311   0.0000000), wk =   0.0277778
        k(   17) = (   0.1666667   0.1886621   0.0000000), wk =   0.0277778
        k(   18) = (   0.1666667   0.2829932   0.0000000), wk =   0.0277778
        k(   19) = (   0.1666667   0.3773243   0.0000000), wk =   0.0277778
        k(   20) = (   0.1666667   0.4716553   0.0000000), wk =   0.0277778
        k(   21) = (   0.1666667  -0.5659864   0.0000000), wk =   0.0138889
        k(   22) = (   0.2500000   0.0000000   0.0000000), wk =   0.0138889
        k(   23) = (   0.2500000   0.0943311   0.0000000), wk =   0.0277778
        k(   24) = (   0.2500000   0.1886621   0.0000000), wk =   0.0277778
        k(   25) = (   0.2500000   0.2829932   0.0000000), wk =   0.0277778
        k(   26) = (   0.2500000   0.3773243   0.0000000), wk =   0.0277778
        k(   27) = (   0.2500000   0.4716553   0.0000000), wk =   0.0277778
        k(   28) = (   0.2500000  -0.5659864   0.0000000), wk =   0.0138889
        k(   29) = (   0.3333333   0.0000000   0.0000000), wk =   0.0138889
        k(   30) = (   0.3333333   0.0943311   0.0000000), wk =   0.0277778
        k(   31) = (   0.3333333   0.1886621   0.0000000), wk =   0.0277778
        k(   32) = (   0.3333333   0.2829932   0.0000000), wk =   0.0277778
        k(   33) = (   0.3333333   0.3773243   0.0000000), wk =   0.0277778
        k(   34) = (   0.3333333   0.4716553   0.0000000), wk =   0.0277778
        k(   35) = (   0.3333333  -0.5659864   0.0000000), wk =   0.0138889
        k(   36) = (   0.4166667   0.0000000   0.0000000), wk =   0.0138889
        k(   37) = (   0.4166667   0.0943311   0.0000000), wk =   0.0277778
        k(   38) = (   0.4166667   0.1886621   0.0000000), wk =   0.0277778
        k(   39) = (   0.4166667   0.2829932   0.0000000), wk =   0.0277778
        k(   40) = (   0.4166667   0.3773243   0.0000000), wk =   0.0277778
        k(   41) = (   0.4166667   0.4716553   0.0000000), wk =   0.0277778
        k(   42) = (   0.4166667  -0.5659864   0.0000000), wk =   0.0138889
        k(   43) = (  -0.5000000   0.0000000   0.0000000), wk =   0.0069444
        k(   44) = (  -0.5000000   0.0943311   0.0000000), wk =   0.0138889
        k(   45) = (  -0.5000000   0.1886621   0.0000000), wk =   0.0138889
        k(   46) = (  -0.5000000   0.2829932   0.0000000), wk =   0.0138889
        k(   47) = (  -0.5000000   0.3773243   0.0000000), wk =   0.0138889
        k(   48) = (  -0.5000000   0.4716553   0.0000000), wk =   0.0138889
        k(   49) = (  -0.5000000  -0.5659864   0.0000000), wk =   0.0069444

     Dense  grid:  2206181 G-vectors     FFT dimensions: ( 100,  90, 486)

     Estimated max dynamical RAM per process >      33.66 MB

     Estimated total dynamical RAM >      13.74 GB
     Generating pointlists ...
     new r_m :   0.2336 (alat units)  1.9432 (a.u.) for type    1
     new r_m :   0.2336 (alat units)  1.9432 (a.u.) for type    2

     Initial potential from superposition of free atoms

     starting charge      17.2241, renormalised to      20.0000

     negative rho (up, down):  9.219E-04 6.521E-04
     Starting wfcs are   36 randomized atomic wfcs

     total cpu time spent up to now is      162.4 secs

     per-process dynamical memory:   367.6 Mb

     Self-consistent Calculation

     iteration #  1     ecut=   350.00 Ry     beta= 0.50
     Davidson diagonalization with overlap
     ethr =  1.00E-02,  avg # of iterations =  2.5

     negative rho (up, down):  3.526E-04 2.242E-04

     total cpu time spent up to now is      164.7 secs

     total energy              =     -53.12261062 Ry
     estimated scf accuracy    <       0.45198447 Ry

     total magnetization       =     0.00 Bohr mag/cell
     absolute magnetization    =     0.47 Bohr mag/cell

     iteration #  2     ecut=   350.00 Ry     beta= 0.50
     Davidson diagonalization with overlap
     ethr =  2.26E-03,  avg # of iterations =  2.6

     negative rho (up, down):  1.863E-04 1.126E-04

     total cpu time spent up to now is      166.6 secs

     total energy              =     -53.27789570 Ry
     estimated scf accuracy    <       0.03723424 Ry

     total magnetization       =     0.00 Bohr mag/cell
     absolute magnetization    =     0.22 Bohr mag/cell

     iteration #  3     ecut=   350.00 Ry     beta= 0.50
     Davidson diagonalization with overlap
     ethr =  1.86E-04,  avg # of iterations =  5.4

     negative rho (up, down):  5.005E-05 3.014E-05

     total cpu time spent up to now is      169.4 secs

     total energy              =     -53.29386149 Ry
     estimated scf accuracy    <       0.01166893 Ry

     total magnetization       =     0.00 Bohr mag/cell
     absolute magnetization    =     0.16 Bohr mag/cell

     iteration #  4     ecut=   350.00 Ry     beta= 0.50
     Davidson diagonalization with overlap
     ethr =  5.83E-05,  avg # of iterations =  3.3

     negative rho (up, down):  4.226E-06 1.863E-06

     total cpu time spent up to now is      171.5 secs

     total energy              =     -53.29727450 Ry
     estimated scf accuracy    <       0.00302318 Ry

     total magnetization       =     0.00 Bohr mag/cell
     absolute magnetization    =     0.10 Bohr mag/cell

     iteration #  5     ecut=   350.00 Ry     beta= 0.50
     Davidson diagonalization with overlap
     ethr =  1.51E-05,  avg # of iterations =  7.1

     negative rho (up, down):  2.626E-06 1.302E-06

     total cpu time spent up to now is      175.0 secs

     total energy              =     -53.29842774 Ry
     estimated scf accuracy    <       0.00035446 Ry

     total magnetization       =    -0.00 Bohr mag/cell
     absolute magnetization    =     0.05 Bohr mag/cell

     iteration #  6     ecut=   350.00 Ry     beta= 0.50
     Davidson diagonalization with overlap
     c_bands:  1 eigenvalues not converged
     c_bands:  2 eigenvalues not converged
     c_bands:  2 eigenvalues not converged
     c_bands:  1 eigenvalues not converged
     ethr =  1.77E-06,  avg # of iterations = 10.8

     negative rho (up, down):  8.326E-07 5.261E-07

     total cpu time spent up to now is      179.8 secs

     total energy              =     -53.29855114 Ry
     estimated scf accuracy    <       0.00004883 Ry

     total magnetization       =     0.00 Bohr mag/cell
     absolute magnetization    =     0.04 Bohr mag/cell

     iteration #  7     ecut=   350.00 Ry     beta= 0.50
     Davidson diagonalization with overlap
     ethr =  2.44E-07,  avg # of iterations =  4.6

     negative rho (up, down):  4.378E-08 1.589E-08

     total cpu time spent up to now is      183.5 secs

     total energy              =     -53.29858582 Ry
     estimated scf accuracy    <       0.00001674 Ry

     total magnetization       =     0.00 Bohr mag/cell
     absolute magnetization    =     0.02 Bohr mag/cell

     iteration #  8     ecut=   350.00 Ry     beta= 0.50
     Davidson diagonalization with overlap
     ethr =  8.37E-08,  avg # of iterations =  2.7
 
     Magnetic moment per site  (integrated on atomic sphere of radius R)
     atom   1 (R=0.234)  charge=  1.7862  magn=  0.0016
     atom   2 (R=0.234)  charge=  1.7862  magn=  0.0016
     atom   3 (R=0.234)  charge=  3.6868  magn= -0.0023
     atom   4 (R=0.234)  charge=  3.6868  magn= -0.0023

     total cpu time spent up to now is      186.3 secs

     End of self-consistent calculation

 ------ SPIN UP ------------


          k = 0.0000 0.0000 0.0000 (275653 PWs)   bands (ev):

   -16.0999 -14.5009  -9.5076  -7.2422  -6.1186  -5.6247  -5.1201  -3.7261
    -3.5611  -2.2142  -0.5259   0.7331   1.2958   1.9232

          k = 0.0000 0.0943 0.0000 (275559 PWs)   bands (ev):

   -16.0536 -14.4833  -9.5758  -7.3778  -6.0878  -5.5955  -5.1493  -3.8059
    -3.4450  -2.2577  -0.4769   1.0083   1.1976   1.6773

          k = 0.0000 0.1887 0.0000 (275704 PWs)   bands (ev):

   -15.9174 -14.4408  -9.7615  -7.7690  -5.9740  -5.5353  -5.1331  -3.8723
    -3.2461  -2.3991  -0.3244   0.6001   1.3236   1.5752

          k = 0.0000 0.2830 0.0000 (275744 PWs)   bands (ev):

   -15.7003 -14.4060  -9.9971  -8.3333  -5.7645  -5.4503  -4.9571  -3.8801
    -3.0246  -2.6414  -0.1386  -0.0601   0.7640   1.4859

          k = 0.0000 0.3773 0.0000 (275888 PWs)   bands (ev):

   -15.4192 -14.4298 -10.1693  -8.9498  -5.4813  -5.2843  -4.6760  -3.8968
    -2.9371  -2.8659  -0.6593   0.2163   0.3055   0.8199

          k = 0.0000 0.4717 0.0000 (275906 PWs)   bands (ev):

   -15.1035 -14.5590 -10.1668  -9.5132  -5.1796  -5.0705  -4.4010  -4.0115
    -3.1516  -2.9113  -0.7480  -0.0455   0.1030   0.6366

          k = 0.0000-0.5660 0.0000 (275924 PWs)   bands (ev):

   -14.7979 -14.7979  -9.9402  -9.9402  -4.9900  -4.9900  -4.2043  -4.2043
    -3.1056  -3.1056  -0.4336  -0.4336   0.1165   0.1167

          k = 0.0833 0.0000 0.0000 (275625 PWs)   bands (ev):

   -16.0672 -14.5092  -9.5916  -7.4548  -6.0321  -5.4920  -5.0804  -3.5520
    -3.5475  -2.3080  -0.4635   0.8019   1.1167   1.7526

          k = 0.0833 0.0943 0.0000 (275630 PWs)   bands (ev):

   -16.0213 -14.4915  -9.6443  -7.5581  -6.0095  -5.6228  -4.9634  -3.8575
    -3.2465  -2.3412  -0.4143   0.8889   1.0501   1.7429

          k = 0.0833 0.1887 0.0000 (275643 PWs)   bands (ev):

   -15.8864 -14.4485  -9.7937  -7.8778  -5.9202  -5.7972  -4.7536  -4.0529
    -3.0351  -2.4531  -0.2648   0.3128   1.4292   1.6305

          k = 0.0833 0.2830 0.0000 (275748 PWs)   bands (ev):

   -15.6714 -14.4121  -9.9937  -8.3797  -5.8361  -5.7381  -4.5207  -4.0989
    -2.9753  -2.6482  -0.1960  -0.0121   0.9788   1.1440

          k = 0.0833 0.3773 0.0000 (275787 PWs)   bands (ev):

   -15.3939 -14.4319 -10.1446  -8.9581  -5.6965  -5.4769  -4.3223  -4.1028
    -3.0651  -2.8734  -0.4003   0.1645   0.4537   0.5579

          k = 0.0833 0.4717 0.0000 (275852 PWs)   bands (ev):

   -15.0834 -14.5542 -10.1361  -9.4998  -5.4204  -5.2081  -4.2765  -4.2439
    -3.1054  -3.0117  -0.4823  -0.3366   0.3440   0.8670

          k = 0.0833-0.5660 0.0000 (275880 PWs)   bands (ev):

   -14.7849 -14.7849  -9.9144  -9.9144  -5.1557  -5.1557  -4.3573  -4.3573
    -3.0550  -3.0550  -0.5695  -0.5695   0.7103   0.7105

          k = 0.1667 0.0000 0.0000 (275645 PWs)   bands (ev):

   -15.9711 -14.5400  -9.7867  -7.9324  -5.8483  -5.1479  -4.9635  -3.5339
    -3.1010  -2.5559  -0.2904   0.6496   0.9618   1.3582

          k = 0.1667 0.0943 0.0000 (275674 PWs)   bands (ev):

   -15.9263 -14.5218  -9.8071  -7.9851  -5.8290  -5.5900  -4.5700  -3.8940
    -2.8602  -2.5594  -0.2386   0.3935   1.0951   1.6140

          k = 0.1667 0.1887 0.0000 (275693 PWs)   bands (ev):

   -15.7950 -14.4769  -9.8743  -8.1703  -6.0281  -5.7717  -4.2923  -4.2178
    -2.8066  -2.5813  -0.0938   0.0926   0.9650   1.9257

          k = 0.1667 0.2830 0.0000 (275745 PWs)   bands (ev):

   -15.5867 -14.4347  -9.9828  -8.5208  -6.2590  -5.6600  -4.4730  -4.0212
    -3.1112  -2.6296   0.0783   0.0844   0.3965   1.7765

          k = 0.1667 0.3773 0.0000 (275801 PWs)   bands (ev):

   -15.3200 -14.4416 -10.0736  -8.9898  -6.2313  -5.4714  -4.5543  -4.0360
    -3.4750  -2.7062  -0.2755   0.2941   0.5503   1.2842

          k = 0.1667 0.4717 0.0000 (275814 PWs)   bands (ev):

   -15.0256 -14.5428 -10.0479  -9.4654  -5.9780  -5.3181  -4.7336  -4.2610
    -3.4804  -2.8863  -0.4378   0.2287   0.9824   1.1767

          k = 0.1667-0.5660 0.0000 (275814 PWs)   bands (ev):

   -14.7490 -14.7490  -9.8415  -9.8415  -5.5876  -5.5876  -4.5806  -4.5806
    -3.1970  -3.1970  -0.1995  -0.1995   1.4816   1.4837

          k = 0.2500 0.0000 0.0000 (275718 PWs)   bands (ev):

   -15.8171 -14.6089  -9.9804  -8.4860  -5.6128  -4.7763  -4.7081  -3.5345
    -2.8759  -2.5521  -0.0303   0.0508   0.9435   1.0576

          k = 0.2500 0.0943 0.0000 (275728 PWs)   bands (ev):

   -15.7743 -14.5893  -9.9720  -8.5010  -5.5913  -5.4466  -4.1568  -3.9172
    -2.8151  -2.4948   0.0201   0.0287   0.9055   1.2708

          k = 0.2500 0.1887 0.0000 (275719 PWs)   bands (ev):

   -15.6492 -14.5393  -9.9577  -8.5703  -6.0837  -5.5505  -4.4818  -3.8524
    -2.8111  -2.6566   0.1537   0.2783   0.4344   1.8541

          k = 0.2500 0.2830 0.0000 (275731 PWs)   bands (ev):

   -15.4525 -14.4851  -9.9583  -8.7503  -6.5064  -5.5400  -4.8190  -3.8418
    -3.3894  -2.5534  -0.1283   0.4835   0.7454   2.2164

          k = 0.2500 0.3773 0.0000 (275712 PWs)   bands (ev):

   -15.2045 -14.4686  -9.9658  -9.0605  -6.6290  -5.4896  -5.0601  -4.0592
    -3.7833  -2.6952  -0.2203   0.7948   1.1975   1.9762

          k = 0.2500 0.4717 0.0000 (275796 PWs)   bands (ev):

   -14.9379 -14.5339  -9.9149  -9.4265  -6.4579  -5.5665  -5.2183  -4.4343
    -3.7301  -3.0379   0.0614   1.0978   1.1838   1.9262

          k = 0.2500-0.5660 0.0000 (275760 PWs)   bands (ev):

   -14.6984 -14.6984  -9.7358  -9.7358  -6.0656  -6.0656  -4.8622  -4.8622
    -3.4223  -3.4223   0.5537   0.5537   1.6205   1.6206

          k = 0.3333 0.0000 0.0000 (275722 PWs)   bands (ev):

   -15.6153 -14.7319 -10.0789  -9.0196  -5.3255  -4.5320  -4.3417  -3.5936
    -3.1111  -2.0902  -0.4685   0.2868   0.6603   0.9202

          k = 0.3333 0.0943 0.0000 (275679 PWs)   bands (ev):

   -15.5754 -14.7095 -10.0527  -9.0100  -5.3039  -5.2104  -4.0023  -3.9737
    -2.8833  -2.2818  -0.1298   0.3519   0.4943   0.9437

          k = 0.3333 0.1887 0.0000 (275782 PWs)   bands (ev):

   -15.4595 -14.6499  -9.9842  -8.9992  -5.9744  -5.2807  -4.6875  -3.8796
    -2.8909  -2.5617   0.0037   0.5605   0.7145   1.5015

          k = 0.3333 0.2830 0.0000 (275790 PWs)   bands (ev):

   -15.2798 -14.5758  -9.9016  -9.0383  -6.5529  -5.4877  -5.0501  -3.9818
    -3.5428  -2.6316  -0.0357   0.8457   1.5287   2.0631

          k = 0.3333 0.3773 0.0000 (275750 PWs)   bands (ev):

   -15.0592 -14.5247  -9.8325  -9.1805  -6.8294  -5.7474  -5.3010  -4.2882
    -3.8630  -2.9437   0.2761   1.1800   1.9055   2.2684

          k = 0.3333 0.4717 0.0000 (275819 PWs)   bands (ev):

   -14.8328 -14.5396  -9.7592  -9.4065  -6.7711  -5.9935  -5.4885  -4.7518
    -3.7822  -3.2510   0.7089   1.5552   1.6185   2.2794

          k = 0.3333-0.5660 0.0000 (275696 PWs)   bands (ev):

   -14.6461 -14.6461  -9.6224  -9.6224  -6.4442  -6.4442  -5.2117  -5.2117
    -3.5367  -3.5367   1.1705   1.1706   1.9631   1.9633

          k = 0.4167 0.0000 0.0000 (275812 PWs)   bands (ev):

   -15.3816 -14.9131 -10.0312  -9.4790  -4.9917  -4.3385  -4.2533  -3.7421
    -2.9667  -2.0769  -0.5265   0.3464   0.5939   0.8676

          k = 0.4167 0.0943 0.0000 (275742 PWs)   bands (ev):

   -15.3455 -14.8865  -9.9976  -9.4544  -4.9789  -4.9185  -4.1964  -4.1675
    -2.6327  -2.2350  -0.1975   0.0408   0.7868   0.9143

          k = 0.4167 0.1887 0.0000 (275726 PWs)   bands (ev):

   -15.2418 -14.8131  -9.9062  -9.3932  -5.7356  -5.1284  -4.8151  -4.1649
    -2.8465  -2.5335  -0.0108   0.7484   0.9687   1.4553

          k = 0.4167 0.2830 0.0000 (275811 PWs)   bands (ev):

   -15.0848 -14.7125  -9.7860  -9.3357  -6.4149  -5.7710  -4.9073  -4.2720
    -3.4783  -2.9206   0.4062   1.3023   1.5188   2.1197

          k = 0.4167 0.3773 0.0000 (275813 PWs)   bands (ev):

   -14.9002 -14.6179  -9.6810  -9.3400  -6.8128  -6.2141  -5.1875  -4.6140
    -3.7573  -3.2557   0.8245   1.6803   1.7199   2.5973

          k = 0.4167 0.4717 0.0000 (275741 PWs)   bands (ev):

   -14.7263 -14.5715  -9.6104  -9.4261  -6.8719  -6.4340  -5.5360  -5.1095
    -3.7092  -3.4268   1.1178   1.5619   2.1552   2.7306

          k = 0.4167-0.5660 0.0000 (275760 PWs)   bands (ev):

   -14.6066 -14.6066  -9.5342  -9.5342  -6.6713  -6.6713  -5.5048  -5.5048
    -3.5672  -3.5672   1.3453   1.3454   2.5548   2.5549

          k =-0.5000 0.0000 0.0000 (275790 PWs)   bands (ev):

   -15.1384 -15.1384  -9.8259  -9.8259  -4.6357  -4.6357  -3.9749  -3.9749
    -2.5100  -2.5100  -0.1130  -0.1128   0.7636   0.7636

          k =-0.5000 0.0943 0.0000 (275706 PWs)   bands (ev):

   -15.1069 -15.1069  -9.7934  -9.7934  -4.7226  -4.7226  -4.3873  -4.3873
    -2.3544  -2.3544  -0.1935  -0.1934   1.0883   1.0886

          k =-0.5000 0.1887 0.0000 (275748 PWs)   bands (ev):

   -15.0179 -15.0179  -9.7058  -9.7058  -5.4164  -5.4164  -4.5189  -4.5189
    -2.6809  -2.6809   0.3081   0.3081   1.3824   1.3829

          k =-0.5000 0.2830 0.0000 (275796 PWs)   bands (ev):

   -14.8882 -14.8882  -9.5952  -9.5952  -6.1331  -6.1331  -4.6045  -4.6045
    -3.2435  -3.2435   0.9627   0.9627   1.7826   1.7828

          k =-0.5000 0.3773 0.0000 (275722 PWs)   bands (ev):

   -14.7470 -14.7470  -9.5140  -9.5140  -6.5939  -6.5939  -4.9391  -4.9391
    -3.5389  -3.5389   1.2881   1.2882   2.2762   2.2763

          k =-0.5000 0.4717 0.0000 (275734 PWs)   bands (ev):

   -14.6350 -14.6350  -9.4948  -9.4948  -6.7494  -6.7494  -5.3962  -5.3962
    -3.5795  -3.5795   1.3701   1.3701   2.6623   2.6624

          k =-0.5000-0.5660 0.0000 (275768 PWs)   bands (ev):

   -14.5918 -14.5918  -9.5008  -9.5008  -6.7440  -6.7440  -5.6192  -5.6192
    -3.5707  -3.5707   1.3689   1.3690   2.8470   2.8471

 ------ SPIN DOWN ----------


          k = 0.0000 0.0000 0.0000 (275653 PWs)   bands (ev):

   -16.1032 -14.5077  -9.5003  -7.2393  -6.1183  -5.6261  -5.1219  -3.7291
    -3.5648  -2.2180  -0.5214   0.7366   1.3006   1.9285

          k = 0.0000 0.0943 0.0000 (275559 PWs)   bands (ev):

   -16.0570 -14.4902  -9.5685  -7.3747  -6.0878  -5.5973  -5.1507  -3.8097
    -3.4475  -2.2613  -0.4726   1.0114   1.2021   1.6823

          k = 0.0000 0.1887 0.0000 (275704 PWs)   bands (ev):

   -15.9210 -14.4479  -9.7541  -7.7657  -5.9745  -5.5377  -5.1336  -3.8762
    -3.2476  -2.4020  -0.3204   0.6040   1.3295   1.5771

          k = 0.0000 0.2830 0.0000 (275744 PWs)   bands (ev):

   -15.7042 -14.4133  -9.9898  -8.3298  -5.7654  -5.4526  -4.9576  -3.8839
    -3.0256  -2.6433  -0.1346  -0.0565   0.7693   1.4871

          k = 0.0000 0.3773 0.0000 (275888 PWs)   bands (ev):

   -15.4237 -14.4371 -10.1622  -8.9459  -5.4825  -5.2864  -4.6771  -3.9005
    -2.9378  -2.8666  -0.6553   0.2210   0.3086   0.8212

          k = 0.0000 0.4717 0.0000 (275906 PWs)   bands (ev):

   -15.1086 -14.5658 -10.1603  -9.5085  -5.1812  -5.0725  -4.4032  -4.0150
    -3.1511  -2.9112  -0.7444  -0.0409   0.1049   0.6374

          k = 0.0000-0.5660 0.0000 (275924 PWs)   bands (ev):

   -14.8039 -14.8039  -9.9346  -9.9346  -4.9920  -4.9920  -4.2073  -4.2073
    -3.1047  -3.1047  -0.4309  -0.4309   0.1203   0.1205

          k = 0.0833 0.0000 0.0000 (275625 PWs)   bands (ev):

   -16.0706 -14.5160  -9.5844  -7.4519  -6.0319  -5.4933  -5.0822  -3.5557
    -3.5503  -2.3113  -0.4592   0.8053   1.1225   1.7579

          k = 0.0833 0.0943 0.0000 (275630 PWs)   bands (ev):

   -16.0248 -14.4983  -9.6370  -7.5550  -6.0096  -5.6243  -4.9650  -3.8609
    -3.2493  -2.3443  -0.4102   0.8940   1.0532   1.7474

          k = 0.0833 0.1887 0.0000 (275643 PWs)   bands (ev):

   -15.8900 -14.4556  -9.7864  -7.8745  -5.9207  -5.7987  -4.7551  -4.0560
    -3.0374  -2.4556  -0.2610   0.3176   1.4317   1.6352

          k = 0.0833 0.2830 0.0000 (275748 PWs)   bands (ev):

   -15.6754 -14.4194  -9.9863  -8.3762  -5.8375  -5.7391  -4.5224  -4.1019
    -2.9768  -2.6498  -0.1917  -0.0086   0.9815   1.1483

          k = 0.0833 0.3773 0.0000 (275787 PWs)   bands (ev):

   -15.3984 -14.4392 -10.1374  -8.9541  -5.6978  -5.4782  -4.3246  -4.1058
    -3.0655  -2.8740  -0.3968   0.1676   0.4568   0.5619

          k = 0.0833 0.4717 0.0000 (275852 PWs)   bands (ev):

   -15.0886 -14.5610 -10.1296  -9.4951  -5.4218  -5.2097  -4.2791  -4.2465
    -3.1054  -3.0118  -0.4790  -0.3332   0.3478   0.8700

          k = 0.0833-0.5660 0.0000 (275880 PWs)   bands (ev):

   -14.7910 -14.7910  -9.9088  -9.9088  -5.1574  -5.1574  -4.3596  -4.3596
    -3.0552  -3.0552  -0.5659  -0.5659   0.7133   0.7138

          k = 0.1667 0.0000 0.0000 (275645 PWs)   bands (ev):

   -15.9747 -14.5467  -9.7799  -7.9294  -5.8485  -5.1492  -4.9655  -3.5378
    -3.1036  -2.5581  -0.2868   0.6552   0.9651   1.3635

          k = 0.1667 0.0943 0.0000 (275674 PWs)   bands (ev):

   -15.9299 -14.5286  -9.8002  -7.9821  -5.8293  -5.5913  -4.5720  -3.8972
    -2.8633  -2.5615  -0.2351   0.3989   1.0983   1.6178

          k = 0.1667 0.1887 0.0000 (275693 PWs)   bands (ev):

   -15.7988 -14.4839  -9.8672  -8.1669  -6.0293  -5.7723  -4.2949  -4.2203
    -2.8092  -2.5829  -0.0903   0.0976   0.9686   1.9306

          k = 0.1667 0.2830 0.0000 (275745 PWs)   bands (ev):

   -15.5909 -14.4419  -9.9755  -8.5171  -6.2601  -5.6611  -4.4751  -4.0242
    -3.1124  -2.6306   0.0815   0.0883   0.4003   1.7807

          k = 0.1667 0.3773 0.0000 (275801 PWs)   bands (ev):

   -15.3247 -14.4489 -10.0664  -8.9856  -6.2322  -5.4728  -4.5562  -4.0390
    -3.4752  -2.7072  -0.2714   0.2967   0.5537   1.2875

          k = 0.1667 0.4717 0.0000 (275814 PWs)   bands (ev):

   -15.0310 -14.5497 -10.0413  -9.4605  -5.9788  -5.3197  -4.7349  -4.2635
    -3.4807  -2.8873  -0.4339   0.2313   0.9855   1.1795

          k = 0.1667-0.5660 0.0000 (275814 PWs)   bands (ev):

   -14.7551 -14.7551  -9.8357  -9.8357  -5.5887  -5.5887  -4.5824  -4.5824
    -3.1977  -3.1977  -0.1961  -0.1961   1.4832   1.4909

          k = 0.2500 0.0000 0.0000 (275718 PWs)   bands (ev):

   -15.8209 -14.6155  -9.9740  -8.4829  -5.6134  -4.7785  -4.7096  -3.5385
    -2.8769  -2.5548  -0.0271   0.0568   0.9489   1.0611

          k = 0.2500 0.0943 0.0000 (275728 PWs)   bands (ev):

   -15.7781 -14.5960  -9.9655  -8.4978  -5.5920  -5.4478  -4.1596  -3.9202
    -2.8158  -2.4979   0.0260   0.0318   0.9092   1.2756

          k = 0.2500 0.1887 0.0000 (275719 PWs)   bands (ev):

   -15.6533 -14.5462  -9.9509  -8.5668  -6.0847  -5.5513  -4.4839  -3.8559
    -2.8129  -2.6572   0.1567   0.2826   0.4392   1.8583

          k = 0.2500 0.2830 0.0000 (275731 PWs)   bands (ev):

   -15.4569 -14.4921  -9.9512  -8.7464  -6.5072  -5.5412  -4.8205  -3.8452
    -3.3901  -2.5545  -0.1239   0.4870   0.7483   2.2197

          k = 0.2500 0.3773 0.0000 (275712 PWs)   bands (ev):

   -15.2094 -14.4757  -9.9586  -9.0560  -6.6298  -5.4911  -5.0610  -4.0621
    -3.7836  -2.6966  -0.2161   0.7980   1.1995   1.9803

          k = 0.2500 0.4717 0.0000 (275796 PWs)   bands (ev):

   -14.9435 -14.5407  -9.9080  -9.4213  -6.4585  -5.5674  -5.2193  -4.4364
    -3.7307  -3.0391   0.0650   1.0999   1.1873   1.9274

          k = 0.2500-0.5660 0.0000 (275760 PWs)   bands (ev):

   -14.7047 -14.7047  -9.7297  -9.7297  -6.0661  -6.0661  -4.8638  -4.8638
    -3.4232  -3.4232   0.5564   0.5564   1.6232   1.6233

          k = 0.3333 0.0000 0.0000 (275722 PWs)   bands (ev):

   -15.6194 -14.7382 -10.0731  -9.0162  -5.3265  -4.5345  -4.3441  -3.5977
    -3.1106  -2.0936  -0.4618   0.2898   0.6656   0.9232

          k = 0.3333 0.0943 0.0000 (275679 PWs)   bands (ev):

   -15.5796 -14.7159 -10.0468  -9.0065  -5.3049  -5.2117  -4.0052  -3.9770
    -2.8833  -2.2846  -0.1242   0.3551   0.4971   0.9482

          k = 0.3333 0.1887 0.0000 (275782 PWs)   bands (ev):

   -15.4639 -14.6564  -9.9779  -8.9954  -5.9753  -5.2819  -4.6891  -3.8828
    -2.8921  -2.5629   0.0086   0.5635   0.7180   1.5036

          k = 0.3333 0.2830 0.0000 (275790 PWs)   bands (ev):

   -15.2846 -14.5825  -9.8948  -9.0340  -6.5536  -5.4890  -5.0511  -3.9847
    -3.5433  -2.6329  -0.0313   0.8489   1.5311   2.0657

          k = 0.3333 0.3773 0.0000 (275750 PWs)   bands (ev):

   -15.0644 -14.5316  -9.8255  -9.1755  -6.8300  -5.7481  -5.3020  -4.2905
    -3.8636  -2.9449   0.2797   1.1834   1.9078   2.2692

          k = 0.3333 0.4717 0.0000 (275819 PWs)   bands (ev):

   -14.8386 -14.5464  -9.7523  -9.4008  -6.7716  -5.9935  -5.4899  -4.7534
    -3.7831  -3.2523   0.7119   1.5581   1.6212   2.2813

          k = 0.3333-0.5660 0.0000 (275696 PWs)   bands (ev):

   -14.6525 -14.6525  -9.6160  -9.6160  -6.4445  -6.4445  -5.2130  -5.2130
    -3.5379  -3.5379   1.1733   1.1734   1.9656   1.9657

          k = 0.4167 0.0000 0.0000 (275812 PWs)   bands (ev):

   -15.3862 -14.9189 -10.0260  -9.4751  -4.9931  -4.3412  -4.2562  -3.7460
    -2.9656  -2.0792  -0.5207   0.3500   0.5990   0.8696

          k = 0.4167 0.0943 0.0000 (275742 PWs)   bands (ev):

   -15.3502 -14.8923  -9.9923  -9.4504  -4.9804  -4.9202  -4.1988  -4.1700
    -2.6336  -2.2374  -0.1919   0.0455   0.7887   0.9180

          k = 0.4167 0.1887 0.0000 (275726 PWs)   bands (ev):

   -15.2467 -14.8191  -9.9006  -9.3889  -5.7365  -5.1300  -4.8161  -4.1673
    -2.8477  -2.5353  -0.0057   0.7523   0.9715   1.4579

          k = 0.4167 0.2830 0.0000 (275811 PWs)   bands (ev):

   -15.0900 -14.7187  -9.7799  -9.3309  -6.4155  -5.7718  -4.9087  -4.2743
    -3.4788  -2.9217   0.4099   1.3055   1.5213   2.1235

          k = 0.4167 0.3773 0.0000 (275813 PWs)   bands (ev):

   -14.9059 -14.6245  -9.6743  -9.3345  -6.8133  -6.2145  -5.1888  -4.6158
    -3.7581  -3.2568   0.8276   1.6830   1.7229   2.5993

          k = 0.4167 0.4717 0.0000 (275741 PWs)   bands (ev):

   -14.7324 -14.5781  -9.6035  -9.4199  -6.8723  -6.4340  -5.5374  -5.1109
    -3.7103  -3.4282   1.1209   1.5648   2.1569   2.7319

          k = 0.4167-0.5660 0.0000 (275760 PWs)   bands (ev):

   -14.6131 -14.6131  -9.5274  -9.5274  -6.6714  -6.6714  -5.5061  -5.5061
    -3.5686  -3.5686   1.3484   1.3484   2.5564   2.5568

          k =-0.5000 0.0000 0.0000 (275790 PWs)   bands (ev):

   -15.1436 -15.1436  -9.8214  -9.8214  -4.6377  -4.6377  -3.9783  -3.9783
    -2.5101  -2.5101  -0.1089  -0.1088   0.7683   0.7683

          k =-0.5000 0.0943 0.0000 (275706 PWs)   bands (ev):

   -15.1122 -15.1122  -9.7888  -9.7888  -4.7248  -4.7248  -4.3890  -4.3890
    -2.3563  -2.3563  -0.1879  -0.1879   1.0901   1.0902

          k =-0.5000 0.1887 0.0000 (275748 PWs)   bands (ev):

   -15.0234 -15.0234  -9.7009  -9.7009  -5.4175  -5.4175  -4.5206  -4.5206
    -2.6824  -2.6824   0.3126   0.3126   1.3848   1.3851

          k =-0.5000 0.2830 0.0000 (275796 PWs)   bands (ev):

   -14.8939 -14.8939  -9.5898  -9.5898  -6.1337  -6.1337  -4.6063  -4.6063
    -3.2443  -3.2443   0.9656   0.9657   1.7855   1.7856

          k =-0.5000 0.3773 0.0000 (275722 PWs)   bands (ev):

   -14.7531 -14.7531  -9.5079  -9.5079  -6.5943  -6.5943  -4.9406  -4.9406
    -3.5399  -3.5399   1.2909   1.2910   2.2784   2.2785

          k =-0.5000 0.4717 0.0000 (275734 PWs)   bands (ev):

   -14.6414 -14.6414  -9.4881  -9.4881  -6.7496  -6.7496  -5.3974  -5.3974
    -3.5808  -3.5808   1.3732   1.3732   2.6636   2.6637

          k =-0.5000-0.5660 0.0000 (275768 PWs)   bands (ev):

   -14.5984 -14.5984  -9.4939  -9.4939  -6.7440  -6.7440  -5.6205  -5.6205
    -3.5721  -3.5721   1.3721   1.3721   2.8486   2.8490

     the Fermi energy is    -1.2202 ev

!    total energy              =     -53.29859330 Ry
     estimated scf accuracy    <       0.00000049 Ry
     smearing contrib. (-TS)   =      -0.00000000 Ry
     internal energy E=F+TS    =     -53.29859330 Ry

     The total energy is F=E-TS. E is the sum of the following terms:
     one-electron contribution =    -335.85200864 Ry
     hartree contribution      =     170.69281266 Ry
     xc contribution           =     -12.78979843 Ry
     ewald contribution        =     124.65040110 Ry

     total magnetization       =     0.00 Bohr mag/cell
     absolute magnetization    =     0.01 Bohr mag/cell

     convergence has been achieved in   8 iterations

     Writing all to output data dir pwscf_output/pwscf.save/ :
     XML data file, charge density, pseudopotentials, collected wavefunctions
 
     init_run     :      9.09s CPU      3.06s WALL (       1 calls)
     electrons    :     93.70s CPU     24.21s WALL (       1 calls)

     Called by init_run:
     wfcinit      :      6.16s CPU      1.59s WALL (       1 calls)
     potinit      :      0.98s CPU      0.26s WALL (       1 calls)
     hinit0       :      1.34s CPU      0.60s WALL (       1 calls)

     Called by electrons:
     c_bands      :     80.47s CPU     20.72s WALL (       8 calls)
     sum_band     :     11.00s CPU      2.83s WALL (       8 calls)
     v_of_rho     :      1.48s CPU      0.38s WALL (       9 calls)
     mix_rho      :      0.33s CPU      0.08s WALL (       8 calls)

     Called by c_bands:
     init_us_2    :      0.63s CPU      0.16s WALL (     425 calls)
     cegterg      :     53.44s CPU     13.72s WALL (     200 calls)

     Called by *egterg:
     cdiaghg      :      1.71s CPU      0.44s WALL (    1221 calls)
     h_psi        :     49.89s CPU     12.81s WALL (    1246 calls)
     g_psi        :      0.02s CPU      0.01s WALL (    1021 calls)

     Called by h_psi:
     h_psi:calbec :      3.18s CPU      0.79s WALL (    1246 calls)
     vloc_psi     :     46.53s CPU     11.94s WALL (    1246 calls)
     add_vuspsi   :      0.12s CPU      0.06s WALL (    1246 calls)

     General routines
     calbec       :      3.17s CPU      0.79s WALL (    1246 calls)
     fft          :      2.47s CPU      0.88s WALL (     168 calls)
     ffts         :      0.09s CPU      0.02s WALL (      16 calls)
     fftw         :     49.43s CPU     12.67s WALL (   22140 calls)
 
     Parallel routines
 
     PWSCF        :   4m41.38s CPU   3m13.43s WALL

 
   This run was terminated on:   0:42:17  16Jul2025            

=------------------------------------------------------------------------------=
   JOB DONE.
=------------------------------------------------------------------------------=
