  Input file(s): optJ123.in.xml 
================================================================
                        QMCPACK 4.1.0

          (c) Copyright 2003-2025 QMCPACK developers

                         Please cite:
      J. Kim et al. J. Phys. Cond. Mat. 30 195901 (2018)
           https://doi.org/10.1088/1361-648X/aab9c3
                             and
       P. Kent et al. J. Chem. Phys. 152 174105 (2020)
              https://doi.org/10.1063/5.0004860

  Git branch: HEAD
  Last git commit: c32123a5233186b177d75b800b86f1ad3b1a1413
  Last git commit date: Wed Apr 30 13:56:36 2025 -0400
  Last git commit subject: Merge pull request #5482 from QMCPACK/rc_410
================================================================
  Global options 

  Total number of MPI ranks = 64
  Number of MPI groups      = 1
  MPI group ID              = 0
  Number of ranks in group  = 64
  MPI ranks per node        = 2
  OMP 1st level threads     = 51
  OMP nested threading disabled or only 1 thread on the 2nd level

  Precision used in this calculation, see definitions in the manual:
  Base precision      = double
  Full precision      = double

  CPU only build
  Real build. QMC_COMPLEX=OFF
  Timer build option is enabled. Current timer level is coarse

=================================================
--- Memory usage report : when QMCPACK starts ---
=================================================
Available memory on node 0, free + buffers : 1076458 MiB
Memory footprint by rank 0 on node 0       :     177 MiB
=================================================

  Input XML = optJ123.in.xml

  Project = optJ123
  date    = 2025-07-15 18:31:21 UTC
  host    = x4118c7s0b0n0


 Random Number
 -------------
  Offset for the random number seeds based on time: 633

  Range of prime numbers to use as seeds over processors and threads = 4703-36779


 Lattice
 -------
  Simulation cell radius   = 3.609377 bohr
  Wigner-Seitz cell radius = 3.609377 bohr

  Overwriting global supercell 
  Long-range breakup parameters:
    rc*kc = 15.000000; rc = 3.609377; kc = 4.155842; tol = 0.000300
  Long-range breakup parameters:
    rc*kc = 15.000000; rc = 3.609377; kc = 4.155842; tol = 0.000300
  KContainer initialised with cutoff 4.155842
   # of K-shell  = 254
   # of K points = 1464

  Lattice (bohr):      8.2770004600                 0                 0
                                  0      7.2187538300                 0
                                  0                 0     20.3901449700

  Boundary Conditions:  p  p  p 

  Volume (bohr^3) = 1218.3035925553

  Reciprocal vectors without 2*pi.
    g_1 =       0.1208167143                 0                 0
    g_2 =                  0      0.1385280650                 0
    g_3 =                  0                 0      0.0490433002

  Metric tensor in real-space.
    h_1 = 68.5087366148 0.0000000000 0.0000000000 
    h_2 = 0.0000000000 52.1104068581 0.0000000000 
    h_3 = 0.0000000000 0.0000000000 415.7580118976 

  Metric tensor in g-space.
    h_1 = 0.5762537678 0.0000000000 0.0000000000 
    h_2 = 0.0000000000 0.7575918129 0.0000000000 
    h_3 = 0.0000000000 0.0000000000 0.0949552780 

 Particle Set
 ------------
  Name: e   Offload : no

  All the species have the same mass 1.0000000000

  Creating Structure Factor for periodic systems 4.1558419509
  Particle set size: 40   Groups : 2


 Particle Set
 ------------
  Name: ion0   Offload : no

  Distinctive masses for each species 

  Creating Structure Factor for periodic systems 4.1558419509
  Particle set size: 8   Groups : 2


 Many-body wavefunction
 -------------------
  Name: psi0   Tasking: no


   Single particle orbitals (SPO) collection
   -----------------------------------------
    Name: bspline   Type input: bspline

  Created SPOSet builder named 'bspline' of type bspline

     Single particle orbitals (SPO)
     ------------------------------
      Name: spo_u   Type: spline   Builder class name: EinsplineSetBuilder

  TileMatrix = 
 [  1  0  0
    0  1  0
    0  0  1 ]
  Reading 20 orbitals from HDF5 file.
  HDF5 orbital file version 2.1.0
  Reading orbital file in ESHDF format.
  ESHDF orbital file version 2.1.0
  Lattice = 
    [  8.277000  0.000000  0.000000
       0.000000  7.218754  0.000000
       0.000000  0.000000 20.390145 ]
  SuperLattice = 
    [  8.277000  0.000000  0.000000
       0.000000  7.218754  0.000000
       0.000000  0.000000 20.390145 ]

bands=24, elecs=40, spins=2, twists=1
Atom type(0) = 32
Atom type(1) = 32
Atom type(2) = 32
Atom type(3) = 32
Atom type(4) = 34
Atom type(5) = 34
Atom type(6) = 34
Atom type(7) = 34
   Skip initialization of the density
TIMER  EinsplineSetBuilder::ReadOrbitalInfo 0.1004975010
TIMER  EinsplineSetBuilder::BroadcastOrbitalInfo 0.0002869540
Found 1 distinct supercell twist based on 1 primitive cell k-point
Super twist #0:  [   0.00000   0.00000   0.00000 ]
QMCPACK WARNING twist attribute does't exist but twistnum attribute was found. This is potentially ambiguous. Specifying twist attribute is preferred.
  Using supercell twist 0:  [   0.00000   0.00000   0.00000]
Using 1 copies of twist angle [ 0.000,  0.000,  0.000]
Using real splines.
24 complex-valued orbitals supplied by h5 can be expanded up to 24 SPOs.
Sorting the bands now:
We will read 20 distinct complex-valued orbitals from h5.
    Using real valued spline SPOs with real single precision storage (R2R).
    Running on CPU.
BandInfoGroup::selectBands bigspace has 24 distinct orbitals 
BandInfoGroup::selectBands using distinct orbitals [0,20)
  Number of distinct bands 20
  First Band index 0
  First SPO index 0
  Size of SPOs 20
  ClassName = SplineR2R
  Using real einspline table
NumDistinctOrbitals 20 numOrbs = 20
  TwistIndex = 0 TwistAngle                  0                 0                 0
   HalfG = 000
B-spline mesh factor is 1.0000000000
B-spline mesh size is (96, 84, 240)
Maxmimum number of Gvecs 134739
MEMORY 255 MB allocated for the coefficients in 3D spline orbital representation
Start transforming plane waves to 3D B-Splines.
  Time to gather the table = 0.6469232560
  SplineSetReader initialize_spline_pio 0.9531764480 sec
  Time to bcast the table = 0.0939359700
Time spent in creating B-spline SPOs 1.1597854620 sec

     Single particle orbitals (SPO)
     ------------------------------
      Name: spo_d   Type: spline   Builder class name: EinsplineSetBuilder

24 complex-valued orbitals supplied by h5 can be expanded up to 24 SPOs.
Sorting the bands now:
We will read 20 distinct complex-valued orbitals from h5.
    Running on CPU.
BandInfoGroup::selectBands bigspace has 24 distinct orbitals 
BandInfoGroup::selectBands using distinct orbitals [0,20)
  Number of distinct bands 20
  First Band index 0
  First SPO index 0
  Size of SPOs 20
  ClassName = SplineR2R
  Using real einspline table
NumDistinctOrbitals 20 numOrbs = 20
  TwistIndex = 0 TwistAngle                  0                 0                 0
   HalfG = 000
B-spline mesh factor is 1.0000000000
B-spline mesh size is (96, 84, 240)
Maxmimum number of Gvecs 134739
MEMORY 255 MB allocated for the coefficients in 3D spline orbital representation
Start transforming plane waves to 3D B-Splines.
  Time to gather the table = 0.4557684570
  SplineSetReader initialize_spline_pio 0.7218299690 sec
  Time to bcast the table = 0.0902135270
Time spent in creating B-spline SPOs 0.8849941590 sec

   Single Slater determinant
   -------------------------

     Determinant
     -----------
      Name: updet   Spin group: 0   SPO name: spo_u

      Setting delay_rank to default value 1
      Using rank-1 Sherman-Morrison Fahy update (SM1)
      Running on CPU.


     Determinant
     -----------
      Name: downdet   Spin group: 1   SPO name: spo_d

      Setting delay_rank to default value 1
      Using rank-1 Sherman-Morrison Fahy update (SM1)
      Running on CPU.

  Added a fermionic WaveFunctionComponent SlaterDet

   Jastrow
   -------
    Name: J1   Type: One-Body   Function: bspline

    Radial function for element: Ge - e
  The Jastrow cutoff specified is slightly larger than the Wigner-Seitz radius.  Setting to Wigner-Seitz radius = 3.6093769150.
     Number of parameters: 8
     Cusp: 0.0000000000
     Cutoff radius: 3.6093769150

      Name                        Value Type Use Index
     ----- ---------------------------- ---- --- -----
     eGe_0                -7.460538e-02    1  ON     0
     eGe_1                -1.205340e-01    1  ON     1
     eGe_2                -9.479667e-02    1  ON     2
     eGe_3                -6.136544e-02    1  ON     3
     eGe_4                -4.956129e-02    1  ON     4
     eGe_5                -3.663185e-02    1  ON     5
     eGe_6                -2.520343e-02    1  ON     6
     eGe_7                -1.897798e-02    1  ON     7

    Radial function for element: Se - e
  The Jastrow cutoff specified is slightly larger than the Wigner-Seitz radius.  Setting to Wigner-Seitz radius = 3.60938.
     Number of parameters: 8
     Cusp: 0
     Cutoff radius: 3.60938

      Name                        Value Type Use Index
     ----- ---------------------------- ---- --- -----
     eSe_0                -3.029844e-01    1  ON     0
     eSe_1                -4.391894e-01    1  ON     1
     eSe_2                -3.589798e-01    1  ON     2
     eSe_3                -2.911655e-01    1  ON     3
     eSe_4                -2.229231e-01    1  ON     4
     eSe_5                -1.558274e-01    1  ON     5
     eSe_6                -9.371350e-02    1  ON     6
     eSe_7                -5.149412e-02    1  ON     7


   Jastrow
   -------
    Name: J2   Type: Two-Body   Function: bspline

    Radial function for species: u - u
  The Jastrow cutoff specified is slightly larger than the Wigner-Seitz radius.  Setting to Wigner-Seitz radius = 3.60938.
     Number of parameters: 8
     Cusp: -0.25
     Cutoff radius: 3.60938

     Name                        Value Type Use Index
     ---- ---------------------------- ---- --- -----
     uu_0                 3.993777e-01    1  ON     0
     uu_1                 3.286063e-01    1  ON     1
     uu_2                 2.476219e-01    1  ON     2
     uu_3                 1.836877e-01    1  ON     3
     uu_4                 1.287178e-01    1  ON     4
     uu_5                 8.668795e-02    1  ON     5
     uu_6                 4.994076e-02    1  ON     6
     uu_7                 2.725802e-02    1  ON     7

    Radial function for species: u - d
  The Jastrow cutoff specified is slightly larger than the Wigner-Seitz radius.  Setting to Wigner-Seitz radius = 3.60938.
     Number of parameters: 8
     Cusp: -0.5
     Cutoff radius: 3.60938

     Name                        Value Type Use Index
     ---- ---------------------------- ---- --- -----
     ud_0                 6.931276e-01    1  ON     0
     ud_1                 5.173175e-01    1  ON     1
     ud_2                 3.754860e-01    1  ON     2
     ud_3                 2.639085e-01    1  ON     3
     ud_4                 1.761552e-01    1  ON     4
     ud_5                 1.119072e-01    1  ON     5
     ud_6                 6.192124e-02    1  ON     6
     ud_7                 3.184385e-02    1  ON     7


   Jastrow
   -------
    Name: J3   Type: eeI   Function: polynomial

     Ion: Ge   electron-electron: u - u
      Number of parameters for e-e: 3, for e-I: 3
      Cutoff radius: 3.60938

Expected 26 parameters, but found 0 in PolynomialFunctor3D.
         Name                        Value Type Use Index
      ------- ---------------------------- ---- --- -----
       uuGe_0                 0.000000e+00    1  ON     0
       uuGe_1                 0.000000e+00    1  ON     1
       uuGe_2                 0.000000e+00    1  ON     2
       uuGe_3                 0.000000e+00    1  ON     3
       uuGe_4                 0.000000e+00    1  ON     4
       uuGe_5                 0.000000e+00    1  ON     5
       uuGe_6                 0.000000e+00    1  ON     6
       uuGe_7                 0.000000e+00    1  ON     7
       uuGe_8                 0.000000e+00    1  ON     8
       uuGe_9                 0.000000e+00    1  ON     9
      uuGe_10                 0.000000e+00    1  ON    10
      uuGe_11                 0.000000e+00    1  ON    11
      uuGe_12                 0.000000e+00    1  ON    12
      uuGe_13                 0.000000e+00    1  ON    13
      uuGe_14                 0.000000e+00    1  ON    14
      uuGe_15                 0.000000e+00    1  ON    15
      uuGe_16                 0.000000e+00    1  ON    16
      uuGe_17                 0.000000e+00    1  ON    17
      uuGe_18                 0.000000e+00    1  ON    18
      uuGe_19                 0.000000e+00    1  ON    19
      uuGe_20                 0.000000e+00    1  ON    20
      uuGe_21                 0.000000e+00    1  ON    21
      uuGe_22                 0.000000e+00    1  ON    22
      uuGe_23                 0.000000e+00    1  ON    23
      uuGe_24                 0.000000e+00    1  ON    24
      uuGe_25                 0.000000e+00    1  ON    25

  The eeI Jastrow cutoff specified is slightly larger than the Wigner-Seitz radius.  Setting to Wigner-Seitz radius = 3.60938.
     Ion: Ge   electron-electron: u - d
      Number of parameters for e-e: 3, for e-I: 3
      Cutoff radius: 3.60938

Expected 26 parameters, but found 0 in PolynomialFunctor3D.
         Name                        Value Type Use Index
      ------- ---------------------------- ---- --- -----
       udGe_0                 0.000000e+00    1  ON     0
       udGe_1                 0.000000e+00    1  ON     1
       udGe_2                 0.000000e+00    1  ON     2
       udGe_3                 0.000000e+00    1  ON     3
       udGe_4                 0.000000e+00    1  ON     4
       udGe_5                 0.000000e+00    1  ON     5
       udGe_6                 0.000000e+00    1  ON     6
       udGe_7                 0.000000e+00    1  ON     7
       udGe_8                 0.000000e+00    1  ON     8
       udGe_9                 0.000000e+00    1  ON     9
      udGe_10                 0.000000e+00    1  ON    10
      udGe_11                 0.000000e+00    1  ON    11
      udGe_12                 0.000000e+00    1  ON    12
      udGe_13                 0.000000e+00    1  ON    13
      udGe_14                 0.000000e+00    1  ON    14
      udGe_15                 0.000000e+00    1  ON    15
      udGe_16                 0.000000e+00    1  ON    16
      udGe_17                 0.000000e+00    1  ON    17
      udGe_18                 0.000000e+00    1  ON    18
      udGe_19                 0.000000e+00    1  ON    19
      udGe_20                 0.000000e+00    1  ON    20
      udGe_21                 0.000000e+00    1  ON    21
      udGe_22                 0.000000e+00    1  ON    22
      udGe_23                 0.000000e+00    1  ON    23
      udGe_24                 0.000000e+00    1  ON    24
      udGe_25                 0.000000e+00    1  ON    25

  The eeI Jastrow cutoff specified is slightly larger than the Wigner-Seitz radius.  Setting to Wigner-Seitz radius = 3.60938.
     Ion: Se   electron-electron: u - u
      Number of parameters for e-e: 3, for e-I: 3
      Cutoff radius: 3.60938

Expected 26 parameters, but found 0 in PolynomialFunctor3D.
         Name                        Value Type Use Index
      ------- ---------------------------- ---- --- -----
       uuSe_0                 0.000000e+00    1  ON     0
       uuSe_1                 0.000000e+00    1  ON     1
       uuSe_2                 0.000000e+00    1  ON     2
       uuSe_3                 0.000000e+00    1  ON     3
       uuSe_4                 0.000000e+00    1  ON     4
       uuSe_5                 0.000000e+00    1  ON     5
       uuSe_6                 0.000000e+00    1  ON     6
       uuSe_7                 0.000000e+00    1  ON     7
       uuSe_8                 0.000000e+00    1  ON     8
       uuSe_9                 0.000000e+00    1  ON     9
      uuSe_10                 0.000000e+00    1  ON    10
      uuSe_11                 0.000000e+00    1  ON    11
      uuSe_12                 0.000000e+00    1  ON    12
      uuSe_13                 0.000000e+00    1  ON    13
      uuSe_14                 0.000000e+00    1  ON    14
      uuSe_15                 0.000000e+00    1  ON    15
      uuSe_16                 0.000000e+00    1  ON    16
      uuSe_17                 0.000000e+00    1  ON    17
      uuSe_18                 0.000000e+00    1  ON    18
      uuSe_19                 0.000000e+00    1  ON    19
      uuSe_20                 0.000000e+00    1  ON    20
      uuSe_21                 0.000000e+00    1  ON    21
      uuSe_22                 0.000000e+00    1  ON    22
      uuSe_23                 0.000000e+00    1  ON    23
      uuSe_24                 0.000000e+00    1  ON    24
      uuSe_25                 0.000000e+00    1  ON    25

  The eeI Jastrow cutoff specified is slightly larger than the Wigner-Seitz radius.  Setting to Wigner-Seitz radius = 3.60938.
     Ion: Se   electron-electron: u - d
      Number of parameters for e-e: 3, for e-I: 3
      Cutoff radius: 3.60938

Expected 26 parameters, but found 0 in PolynomialFunctor3D.
         Name                        Value Type Use Index
      ------- ---------------------------- ---- --- -----
       udSe_0                 0.000000e+00    1  ON     0
       udSe_1                 0.000000e+00    1  ON     1
       udSe_2                 0.000000e+00    1  ON     2
       udSe_3                 0.000000e+00    1  ON     3
       udSe_4                 0.000000e+00    1  ON     4
       udSe_5                 0.000000e+00    1  ON     5
       udSe_6                 0.000000e+00    1  ON     6
       udSe_7                 0.000000e+00    1  ON     7
       udSe_8                 0.000000e+00    1  ON     8
       udSe_9                 0.000000e+00    1  ON     9
      udSe_10                 0.000000e+00    1  ON    10
      udSe_11                 0.000000e+00    1  ON    11
      udSe_12                 0.000000e+00    1  ON    12
      udSe_13                 0.000000e+00    1  ON    13
      udSe_14                 0.000000e+00    1  ON    14
      udSe_15                 0.000000e+00    1  ON    15
      udSe_16                 0.000000e+00    1  ON    16
      udSe_17                 0.000000e+00    1  ON    17
      udSe_18                 0.000000e+00    1  ON    18
      udSe_19                 0.000000e+00    1  ON    19
      udSe_20                 0.000000e+00    1  ON    20
      udSe_21                 0.000000e+00    1  ON    21
      udSe_22                 0.000000e+00    1  ON    22
      udSe_23                 0.000000e+00    1  ON    23
      udSe_24                 0.000000e+00    1  ON    24
      udSe_25                 0.000000e+00    1  ON    25

  The eeI Jastrow cutoff specified is slightly larger than the Wigner-Seitz radius.  Setting to Wigner-Seitz radius = 3.60938.
  Wave function psi0 parameters:
       Name                        Value Type Use Index
    ------- ---------------------------- ---- --- -----
      eGe_0                -7.460538e-02    1  ON     0
      eGe_1                -1.205340e-01    1  ON     1
      eGe_2                -9.479667e-02    1  ON     2
      eGe_3                -6.136544e-02    1  ON     3
      eGe_4                -4.956129e-02    1  ON     4
      eGe_5                -3.663185e-02    1  ON     5
      eGe_6                -2.520343e-02    1  ON     6
      eGe_7                -1.897798e-02    1  ON     7
      eSe_0                -3.029844e-01    1  ON     8
      eSe_1                -4.391894e-01    1  ON     9
      eSe_2                -3.589798e-01    1  ON    10
      eSe_3                -2.911655e-01    1  ON    11
      eSe_4                -2.229231e-01    1  ON    12
      eSe_5                -1.558274e-01    1  ON    13
      eSe_6                -9.371350e-02    1  ON    14
      eSe_7                -5.149412e-02    1  ON    15
       uu_0                 3.993777e-01    1  ON    16
       uu_1                 3.286063e-01    1  ON    17
       uu_2                 2.476219e-01    1  ON    18
       uu_3                 1.836877e-01    1  ON    19
       uu_4                 1.287178e-01    1  ON    20
       uu_5                 8.668795e-02    1  ON    21
       uu_6                 4.994076e-02    1  ON    22
       uu_7                 2.725802e-02    1  ON    23
       ud_0                 6.931276e-01    1  ON    24
       ud_1                 5.173175e-01    1  ON    25
       ud_2                 3.754860e-01    1  ON    26
       ud_3                 2.639085e-01    1  ON    27
       ud_4                 1.761552e-01    1  ON    28
       ud_5                 1.119072e-01    1  ON    29
       ud_6                 6.192124e-02    1  ON    30
       ud_7                 3.184385e-02    1  ON    31
     uuGe_0                 0.000000e+00    1  ON    32
     uuGe_1                 0.000000e+00    1  ON    33
     uuGe_2                 0.000000e+00    1  ON    34
     uuGe_3                 0.000000e+00    1  ON    35
     uuGe_4                 0.000000e+00    1  ON    36
     uuGe_5                 0.000000e+00    1  ON    37
     uuGe_6                 0.000000e+00    1  ON    38
     uuGe_7                 0.000000e+00    1  ON    39
     uuGe_8                 0.000000e+00    1  ON    40
     uuGe_9                 0.000000e+00    1  ON    41
    uuGe_10                 0.000000e+00    1  ON    42
    uuGe_11                 0.000000e+00    1  ON    43
    uuGe_12                 0.000000e+00    1  ON    44
    uuGe_13                 0.000000e+00    1  ON    45
    uuGe_14                 0.000000e+00    1  ON    46
    uuGe_15                 0.000000e+00    1  ON    47
    uuGe_16                 0.000000e+00    1  ON    48
    uuGe_17                 0.000000e+00    1  ON    49
    uuGe_18                 0.000000e+00    1  ON    50
    uuGe_19                 0.000000e+00    1  ON    51
    uuGe_20                 0.000000e+00    1  ON    52
    uuGe_21                 0.000000e+00    1  ON    53
    uuGe_22                 0.000000e+00    1  ON    54
    uuGe_23                 0.000000e+00    1  ON    55
    uuGe_24                 0.000000e+00    1  ON    56
    uuGe_25                 0.000000e+00    1  ON    57
     udGe_0                 0.000000e+00    1  ON    58
     udGe_1                 0.000000e+00    1  ON    59
     udGe_2                 0.000000e+00    1  ON    60
     udGe_3                 0.000000e+00    1  ON    61
     udGe_4                 0.000000e+00    1  ON    62
     udGe_5                 0.000000e+00    1  ON    63
     udGe_6                 0.000000e+00    1  ON    64
     udGe_7                 0.000000e+00    1  ON    65
     udGe_8                 0.000000e+00    1  ON    66
     udGe_9                 0.000000e+00    1  ON    67
    udGe_10                 0.000000e+00    1  ON    68
    udGe_11                 0.000000e+00    1  ON    69
    udGe_12                 0.000000e+00    1  ON    70
    udGe_13                 0.000000e+00    1  ON    71
    udGe_14                 0.000000e+00    1  ON    72
    udGe_15                 0.000000e+00    1  ON    73
    udGe_16                 0.000000e+00    1  ON    74
    udGe_17                 0.000000e+00    1  ON    75
    udGe_18                 0.000000e+00    1  ON    76
    udGe_19                 0.000000e+00    1  ON    77
    udGe_20                 0.000000e+00    1  ON    78
    udGe_21                 0.000000e+00    1  ON    79
    udGe_22                 0.000000e+00    1  ON    80
    udGe_23                 0.000000e+00    1  ON    81
    udGe_24                 0.000000e+00    1  ON    82
    udGe_25                 0.000000e+00    1  ON    83
     uuSe_0                 0.000000e+00    1  ON    84
     uuSe_1                 0.000000e+00    1  ON    85
     uuSe_2                 0.000000e+00    1  ON    86
     uuSe_3                 0.000000e+00    1  ON    87
     uuSe_4                 0.000000e+00    1  ON    88
     uuSe_5                 0.000000e+00    1  ON    89
     uuSe_6                 0.000000e+00    1  ON    90
     uuSe_7                 0.000000e+00    1  ON    91
     uuSe_8                 0.000000e+00    1  ON    92
     uuSe_9                 0.000000e+00    1  ON    93
    uuSe_10                 0.000000e+00    1  ON    94
    uuSe_11                 0.000000e+00    1  ON    95
    uuSe_12                 0.000000e+00    1  ON    96
    uuSe_13                 0.000000e+00    1  ON    97
    uuSe_14                 0.000000e+00    1  ON    98
    uuSe_15                 0.000000e+00    1  ON    99
    uuSe_16                 0.000000e+00    1  ON   100
    uuSe_17                 0.000000e+00    1  ON   101
    uuSe_18                 0.000000e+00    1  ON   102
    uuSe_19                 0.000000e+00    1  ON   103
    uuSe_20                 0.000000e+00    1  ON   104
    uuSe_21                 0.000000e+00    1  ON   105
    uuSe_22                 0.000000e+00    1  ON   106
    uuSe_23                 0.000000e+00    1  ON   107
    uuSe_24                 0.000000e+00    1  ON   108
    uuSe_25                 0.000000e+00    1  ON   109
     udSe_0                 0.000000e+00    1  ON   110
     udSe_1                 0.000000e+00    1  ON   111
     udSe_2                 0.000000e+00    1  ON   112
     udSe_3                 0.000000e+00    1  ON   113
     udSe_4                 0.000000e+00    1  ON   114
     udSe_5                 0.000000e+00    1  ON   115
     udSe_6                 0.000000e+00    1  ON   116
     udSe_7                 0.000000e+00    1  ON   117
     udSe_8                 0.000000e+00    1  ON   118
     udSe_9                 0.000000e+00    1  ON   119
    udSe_10                 0.000000e+00    1  ON   120
    udSe_11                 0.000000e+00    1  ON   121
    udSe_12                 0.000000e+00    1  ON   122
    udSe_13                 0.000000e+00    1  ON   123
    udSe_14                 0.000000e+00    1  ON   124
    udSe_15                 0.000000e+00    1  ON   125
    udSe_16                 0.000000e+00    1  ON   126
    udSe_17                 0.000000e+00    1  ON   127
    udSe_18                 0.000000e+00    1  ON   128
    udSe_19                 0.000000e+00    1  ON   129
    udSe_20                 0.000000e+00    1  ON   130
    udSe_21                 0.000000e+00    1  ON   131
    udSe_22                 0.000000e+00    1  ON   132
    udSe_23                 0.000000e+00    1  ON   133
    udSe_24                 0.000000e+00    1  ON   134
    udSe_25                 0.000000e+00    1  ON   135

  Adding psi0 TrialWaveFunction to the pool

 Hamiltonian and observables
 ---------------------------
  Name: h0

  QMCHamiltonian::addOperator Kinetic to H, physical Hamiltonian 

   Pseudo Potential
   ----------------
    Name: PseudoPot   Wavefunction : psi0


  Adding pseudopotential for Ge
   Linear grid  ri=0 rf=10 npts = 10001
    ECPComponentBuilder::buildSemiLocalAndLocal 
QMCPACK WARNING Nrule was not determined from qmcpack input or pseudopotential file. Setting sensible default.
    Assuming Hartree unit
 l-local setting found in pseudopotential file and used.
   Number of angular momentum channels 4
   Maximum angular momentum channel (Lmax) 3
   Creating a Linear Grid Rmax=4.425
  Using global grid with delta = 0.001
   Making L=3 a local potential with a radial cutoff of 9.999
  Quadrature Nrule: 4
    Non-local pseudopotential parameters
    Maximum angular momentum = 2
    Number of non-local channels = 3
       l(0)=0
       l(1)=1
       l(2)=2
    Cutoff radius = 4.425
    Number of spherical integration grid points = 12
    Spherical grid and weights: 
                        1                 0                 0       0.08333333333
                       -1   1.224646799e-16                 0       0.08333333333
             0.4472135955       0.894427191                 0       0.08333333333
            -0.4472135955      0.7236067977      0.5257311121       0.08333333333
             0.4472135955      0.2763932023      0.8506508084       0.08333333333
            -0.4472135955     -0.2763932023      0.8506508084       0.08333333333
             0.4472135955     -0.7236067977      0.5257311121       0.08333333333
            -0.4472135955      -0.894427191   1.095357397e-16       0.08333333333
             0.4472135955     -0.7236067977     -0.5257311121       0.08333333333
            -0.4472135955     -0.2763932023     -0.8506508084       0.08333333333
             0.4472135955      0.2763932023     -0.8506508084       0.08333333333
            -0.4472135955      0.7236067977     -0.5257311121       0.08333333333
    Maximum cutoff radius 4.425

  Adding pseudopotential for Se
   Linear grid  ri=0 rf=10 npts = 10001
    ECPComponentBuilder::buildSemiLocalAndLocal 
QMCPACK WARNING Nrule was not determined from qmcpack input or pseudopotential file. Setting sensible default.
    Assuming Hartree unit
 l-local setting found in pseudopotential file and used.
   Number of angular momentum channels 4
   Maximum angular momentum channel (Lmax) 3
   Creating a Linear Grid Rmax=3.085
  Using global grid with delta = 0.001
   Making L=3 a local potential with a radial cutoff of 9.999
  Quadrature Nrule: 4
    Non-local pseudopotential parameters
    Maximum angular momentum = 2
    Number of non-local channels = 3
       l(0)=0
       l(1)=1
       l(2)=2
    Cutoff radius = 3.085
    Number of spherical integration grid points = 12
    Spherical grid and weights: 
                        1                 0                 0       0.08333333333
                       -1   1.224646799e-16                 0       0.08333333333
             0.4472135955       0.894427191                 0       0.08333333333
            -0.4472135955      0.7236067977      0.5257311121       0.08333333333
             0.4472135955      0.2763932023      0.8506508084       0.08333333333
            -0.4472135955     -0.2763932023      0.8506508084       0.08333333333
             0.4472135955     -0.7236067977      0.5257311121       0.08333333333
            -0.4472135955      -0.894427191   1.095357397e-16       0.08333333333
             0.4472135955     -0.7236067977     -0.5257311121       0.08333333333
            -0.4472135955     -0.2763932023     -0.8506508084       0.08333333333
             0.4472135955      0.2763932023     -0.8506508084       0.08333333333
            -0.4472135955      0.7236067977     -0.5257311121       0.08333333333
    Maximum cutoff radius 3.085

  Creating CoulombHandler with the Esler Optimized Breakup. 
  KContainer initialised with cutoff 17.64883115
   # of K-shell  = 15328
   # of K points = 113088

  NUMBER OF OPT_BREAK KVECS = 94506472937
 finding kc:  4.155841951 , 4.155841951
  LRBreakp parameter Kc =4.155841951
    Continuum approximation in k = [17.64883115,1662.33678)

   LR Breakup chi^2 = 2.32162e-16
   Constant of PBCAB 7.0533
    CoulombPBCAB::initBreakup
  Setting a linear grid=[0,3.6094) number of grid points =1001
  Rcut                3.6094
  Maximum K shell     253
  Number of k vectors 1464
    CoulombPBCAB::add 
 Setting a linear grid=[0,3.6094) number of grid =3610
    Creating the short-range pseudopotential for species 0
    CoulombPBCAB::add 
 Setting a linear grid=[0,3.6094) number of grid =3610
    Creating the short-range pseudopotential for species 1
  QMCHamiltonian::addOperator LocalECP to H, physical Hamiltonian 

  Using NonLocalECP potential 
    Maximum grid on a sphere for NonLocalECPotential: 12
    Using batched ratio computing in NonLocalECP
  QMCHamiltonian::addOperator NonLocalECP to H, physical Hamiltonian 

   Coulomb Potential
   -----------------
    Name: ElecElec   Type: AA   PBC: yes

  Clone CoulombHandler. 
   PBCAA self-interaction term -16.822
   PBCAA total constant -20.349
    CoulombPBCAA::initBreakup
  Setting a linear grid=[0,3.6094) number of grid points =1001
  Maximum K shell 253
  Number of k vectors 1464
  Fixed Coulomb potential for e
    e-e Madelung Const. =-0.072834012
    Vtot     =0
  QMCHamiltonian::addOperator ElecElec to H, physical Hamiltonian 
QMCHamiltonian::addOperatorType added type coulomb named ElecElec

   Coulomb Potential
   -----------------
    Name: IonIon   Type: AA   PBC: yes

  Clone CoulombHandler. 
   PBCAA self-interaction term -87.474138
   PBCAA total constant -91.000786
    CoulombPBCAA::initBreakup
  Setting a linear grid=[0,3.6093769) number of grid points =1001
Checking ion-ion Ewald energy against reference...
  Check passed.
  Maximum K shell 253
  Number of k vectors 1464
  Fixed Coulomb potential for ion0
    e-e Madelung Const. =-0.072834012
    Vtot     =-53.673864
  QMCHamiltonian::addOperator IonIon to H, physical Hamiltonian 
QMCHamiltonian::addOperatorType added type coulomb named IonIon

  QMCHamiltonian::add2WalkerProperty added
    5 to P::PropertyList 
    0 to P::Collectables 
    starting Index of the observables in P::PropertyList = 9
ParticleSetPool::randomize 1 ParticleSet.
<init source="ion0" target="e">
</init>
  Initialization Execution time = 2.903 secs
=========================================================
 Summary of QMC systems 
=========================================================
ParticleSetPool has: 

  ParticleSet 'e' contains 40 particles :  u(20) d(20)

    u  8.2362840803e+00  3.1150531681e+00  1.7914200802e+01
    u  5.6827267334e-01  4.6168291866e-01  1.8735833409e+01
    u  3.6141659902e+00  3.1956432310e-01  7.2485136458e+00
    u  2.2948024562e+00  5.3643964390e-01  7.8610573175e+00
    u  6.6124089778e+00  6.8027528331e+00  2.5759133394e+00
    u  7.4825442591e+00  4.4420288486e+00  1.1990310455e+00
    u  4.3963329415e+00  5.9741884502e+00  1.1297565579e+01
    u  3.9292262065e+00  5.9681945870e+00  1.3697733001e+01
    u  2.8174397266e+00  1.1659259821e+00  2.4341675075e+00
    u  4.0493395785e+00  6.1565751818e-01  4.0822654488e+00
    (... and 30 more particle positions ...)

  Distance table for dissimilar particles (A-B):
    source: ion0  target: e
    Using structure-of-arrays (SoA) data layout
    Distance computations use orthorhombic periodic cell in 3D.

  Distance table for similar particles (A-A):
    source/target: e
    Using structure-of-arrays (SoA) data layout
    Distance computations use orthorhombic periodic cell in 3D.


  ParticleSet 'ion0' contains 8 particles :  Ge(4) Se(4)

    Ge  8.7736205000e-01  1.8046884600e+00  1.7922937430e+01
    Ge  3.2611381800e+00  1.8046884600e+00  7.7278649400e+00
    Ge  7.3996384100e+00  5.4140653700e+00  2.4672075400e+00
    Ge  5.0158622800e+00  5.4140653700e+00  1.2662280030e+01
    Se  4.1633312300e+00  1.8046884600e+00  3.0177414600e+00
    Se  8.2521694600e+00  1.8046884600e+00  1.3212813940e+01
    Se  4.1136692300e+00  5.4140653700e+00  1.7372403510e+01
    Se  2.4831000000e-02  5.4140653700e+00  7.1773310300e+00

  Distance table for similar particles (A-A):
    source/target: ion0
    Using structure-of-arrays (SoA) data layout
    Distance computations use orthorhombic periodic cell in 3D.


  Hamiltonian h0
  Kinetic         Kinetic energy
  LocalECP        CoulombPBCAB potential source: ion0
  NonLocalECP     NonLocalECPotential: ion0
  ElecElec        CoulombPBCAA potential: e_e
  IonIon          CoulombPBCAA potential: ion0_ion0

Loop execution max-interations = 10

========================================
  Reading WFOpt driver XML input section
========================================
  Random walking without drift
 Legacy constructor adding a default LocalEnergyEstimator for the MainEstimator 

=========================================================
  Start QMCLinearOptimizeBatched
  File Root optJ123.s000
=========================================================
  Random walking without drift
 Legacy constructor adding a default LocalEnergyEstimator for the MainEstimator 

=========================================================
  Start VMCBatched
  File Root optJ123.s000
=========================================================
==============================================================
--- Memory usage report : VMCBatched before initialization ---
==============================================================
Available memory on node 0, free + buffers : 1074944 MiB
Memory footprint by rank 0 on node 0       :     918 MiB
==============================================================
VMCBatched Driver running with
             total_walkers     = 3264
             walkers_per_rank  = [51(x64)]
             num_crowds        = 51
  on rank 0, walkers_per_crowd = [1(x51)]

                         steps = 7 (different from input value 0)
                        blocks = 10

VMCBatched Driver collecting samples, samples per rank = 3570
                                      total samples    = 228480

 Using QMCCostFunctionBatched::QMCCostFunctionBatched
 TrialWaveFunction "psi0" has 8 optimizable objects:
   'eGe' optimized
   'eSe' optimized
   'uu' optimized
   'ud' optimized
   'uuGe' optimized
   'udGe' optimized
   'uuSe' optimized
   'udSe' optimized
 Variational subset selects 136 parameters.
 In total 136 parameters being optimized after applying constraints.
 Using Default Cost Function: Cost = <|E-E_ff|^2>

******************
Generating samples
******************

===================================================================
--- Memory usage report : VMCBatched after initialLogEvaluation ---
===================================================================
Available memory on node 0, free + buffers : 1074886 MiB
Memory footprint by rank 0 on node 0       :     967 MiB
===================================================================
=====================================================
--- Memory usage report : VMCBatched after Warmup ---
=====================================================
Available memory on node 0, free + buffers : 1074885 MiB
Memory footprint by rank 0 on node 0       :     967 MiB
=====================================================
VMC Warmup completed in 1.7443e-01 secs
Completed block    1 of 10 average 0.1298 secs/block after 6.299 secs
Completed block    2 of 10 average 0.1287 secs/block after 6.428 secs
Completed block    5 of 10 average 0.129 secs/block after 6.818 secs
Completed block    7 of 10 average 0.1286 secs/block after 7.076 secs
Completed block   10 of 10 average 0.1291 secs/block after 7.47 secs
====================================================
  End of a VMC section
    QMC counter        = 0
    time step          = 0.3
    reference energy   = -52.622
    reference variance = 1.37806
====================================================
=============================================
--- Memory usage report : VMCBatched ends ---
=============================================
Available memory on node 0, free + buffers : 1074883 MiB
Memory footprint by rank 0 on node 0       :     967 MiB
=============================================
  Carry over 3264 walker configurations to the next QMC driver.
  Execution time (sampling) = 1.5118e+00

*****************************
Compute parameter derivatives
*****************************

 Found 2 wavefunction dependent components in the Hamiltonian 'Kinetic' 'NonLocalECP'.
  VMC Eavg = -5.2622e+01
  VMC Evar = 1.3783e+00
  Total weights = 2.2848e+05
  Execution time (derivatives) = 3.6079e-01

*****************************************
Building overlap and Hamiltonian matrices
*****************************************
  Execution time (building matrices) = 4.1754e-02

**************************
Solving eigenvalue problem
**************************
  Using inverse + regular eigenvalue solver (geev)
  Execution time (eigenvalue) = 2.3457e-02

Among totally 136 optimized parameters, largest LM parameter change : 5.1195e-02 at parameter 9
Effective weight of all the samples measured by correlated sampling is 9.9770e-01

******************************************************************************
Init Cost =  -4.7222e+01    New Cost =  -4.7231e+01  Delta Cost =  -8.6516e-03
******************************************************************************

The new set of parameters is valid. Updating the trial wave function!

*****************************************************************************
Applying the update for shift_i =   1.0000e-02     and shift_s =   2.5000e-01
*****************************************************************************
  Updated wave function parameters:
       Name                        Value Type Use Index
    ------- ---------------------------- ---- --- -----
      eGe_0                -7.873694e-02    1  ON     0
      eGe_1                -1.020455e-01    1  ON     1
      eGe_2                -8.443432e-02    1  ON     2
      eGe_3                -5.667471e-02    1  ON     3
      eGe_4                -4.989235e-02    1  ON     4
      eGe_5                -3.657861e-02    1  ON     5
      eGe_6                -2.479629e-02    1  ON     6
      eGe_7                -1.921568e-02    1  ON     7
      eSe_0                -3.135772e-01    1  ON     8
      eSe_1                -3.879940e-01    1  ON     9
      eSe_2                -3.341178e-01    1  ON    10
      eSe_3                -2.791052e-01    1  ON    11
      eSe_4                -2.249836e-01    1  ON    12
      eSe_5                -1.555942e-01    1  ON    13
      eSe_6                -9.382992e-02    1  ON    14
      eSe_7                -5.130035e-02    1  ON    15
       uu_0                 4.100343e-01    1  ON    16
       uu_1                 3.293578e-01    1  ON    17
       uu_2                 2.495603e-01    1  ON    18
       uu_3                 1.850178e-01    1  ON    19
       uu_4                 1.297380e-01    1  ON    20
       uu_5                 8.664140e-02    1  ON    21
       uu_6                 4.966922e-02    1  ON    22
       uu_7                 2.704179e-02    1  ON    23
       ud_0                 6.989038e-01    1  ON    24
       ud_1                 5.225653e-01    1  ON    25
       ud_2                 3.807391e-01    1  ON    26
       ud_3                 2.682611e-01    1  ON    27
       ud_4                 1.792691e-01    1  ON    28
       ud_5                 1.131794e-01    1  ON    29
       ud_6                 6.216543e-02    1  ON    30
       ud_7                 3.189129e-02    1  ON    31
     uuGe_0                -5.773410e-03    1  ON    32
     uuGe_1                 8.462557e-03    1  ON    33
     uuGe_2                -1.945027e-03    1  ON    34
     uuGe_3                 8.198500e-03    1  ON    35
     uuGe_4                -2.773147e-03    1  ON    36
     uuGe_5                -1.578342e-03    1  ON    37
     uuGe_6                -4.707360e-03    1  ON    38
     uuGe_7                -1.659861e-03    1  ON    39
     uuGe_8                 2.567027e-03    1  ON    40
     uuGe_9                -2.988906e-05    1  ON    41
    uuGe_10                -2.366331e-03    1  ON    42
    uuGe_11                 2.221169e-04    1  ON    43
    uuGe_12                 4.141272e-03    1  ON    44
    uuGe_13                 3.825277e-03    1  ON    45
    uuGe_14                -7.037460e-04    1  ON    46
    uuGe_15                -7.819089e-03    1  ON    47
    uuGe_16                 1.635550e-03    1  ON    48
    uuGe_17                -4.967290e-04    1  ON    49
    uuGe_18                 3.690203e-04    1  ON    50
    uuGe_19                 2.530775e-03    1  ON    51
    uuGe_20                 3.888918e-03    1  ON    52
    uuGe_21                 6.311905e-04    1  ON    53
    uuGe_22                 1.947933e-03    1  ON    54
    uuGe_23                 2.036632e-03    1  ON    55
    uuGe_24                 1.041248e-03    1  ON    56
    uuGe_25                 1.334748e-03    1  ON    57
     udGe_0                -2.685340e-02    1  ON    58
     udGe_1                 2.013893e-02    1  ON    59
     udGe_2                -1.970598e-02    1  ON    60
     udGe_3                 1.816857e-02    1  ON    61
     udGe_4                -2.613325e-02    1  ON    62
     udGe_5                -2.323198e-03    1  ON    63
     udGe_6                -1.158307e-02    1  ON    64
     udGe_7                -7.977433e-03    1  ON    65
     udGe_8                 1.089851e-02    1  ON    66
     udGe_9                -1.117224e-02    1  ON    67
    udGe_10                -2.450821e-03    1  ON    68
    udGe_11                -6.434040e-03    1  ON    69
    udGe_12                 2.246138e-02    1  ON    70
    udGe_13                -6.118405e-04    1  ON    71
    udGe_14                -1.532382e-02    1  ON    72
    udGe_15                -2.625481e-02    1  ON    73
    udGe_16                -2.635212e-03    1  ON    74
    udGe_17                 5.537716e-04    1  ON    75
    udGe_18                 4.481447e-05    1  ON    76
    udGe_19                 1.673741e-02    1  ON    77
    udGe_20                -5.802294e-03    1  ON    78
    udGe_21                -5.445912e-03    1  ON    79
    udGe_22                 1.092451e-02    1  ON    80
    udGe_23                -5.496603e-03    1  ON    81
    udGe_24                -5.863766e-03    1  ON    82
    udGe_25                -6.567089e-03    1  ON    83
     uuSe_0                -9.853659e-03    1  ON    84
     uuSe_1                 1.280523e-02    1  ON    85
     uuSe_2                -6.777735e-03    1  ON    86
     uuSe_3                 1.568871e-02    1  ON    87
     uuSe_4                -6.459091e-03    1  ON    88
     uuSe_5                 1.130005e-03    1  ON    89
     uuSe_6                -5.250778e-03    1  ON    90
     uuSe_7                -5.496401e-04    1  ON    91
     uuSe_8                 7.542610e-03    1  ON    92
     uuSe_9                -5.194421e-03    1  ON    93
    uuSe_10                -4.725004e-03    1  ON    94
    uuSe_11                 2.377586e-03    1  ON    95
    uuSe_12                 1.292437e-02    1  ON    96
    uuSe_13                -1.577849e-04    1  ON    97
    uuSe_14                -5.233544e-03    1  ON    98
    uuSe_15                -1.796591e-02    1  ON    99
    uuSe_16                -3.991071e-03    1  ON   100
    uuSe_17                -2.206177e-03    1  ON   101
    uuSe_18                 1.290659e-03    1  ON   102
    uuSe_19                 1.145196e-02    1  ON   103
    uuSe_20                -1.288216e-02    1  ON   104
    uuSe_21                -2.929415e-03    1  ON   105
    uuSe_22                 1.063858e-02    1  ON   106
    uuSe_23                -1.242216e-02    1  ON   107
    uuSe_24                -6.658922e-03    1  ON   108
    uuSe_25                -4.379927e-03    1  ON   109
     udSe_0                -2.759370e-02    1  ON   110
     udSe_1                 2.554581e-02    1  ON   111
     udSe_2                -1.712514e-02    1  ON   112
     udSe_3                 4.840855e-02    1  ON   113
     udSe_4                -1.579133e-02    1  ON   114
     udSe_5                -1.910266e-02    1  ON   115
     udSe_6                -3.817847e-03    1  ON   116
     udSe_7                 4.662396e-03    1  ON   117
     udSe_8                 8.890365e-03    1  ON   118
     udSe_9                -1.280676e-02    1  ON   119
    udSe_10                 5.961735e-04    1  ON   120
    udSe_11                 1.125004e-02    1  ON   121
    udSe_12                 1.398345e-02    1  ON   122
    udSe_13                 6.235518e-03    1  ON   123
    udSe_14                -1.059660e-02    1  ON   124
    udSe_15                -3.430915e-02    1  ON   125
    udSe_16                -1.214837e-02    1  ON   126
    udSe_17                -1.298868e-03    1  ON   127
    udSe_18                 9.100661e-03    1  ON   128
    udSe_19                 1.974504e-02    1  ON   129
    udSe_20                -4.225989e-02    1  ON   130
    udSe_21                 2.393861e-03    1  ON   131
    udSe_22                 2.035237e-02    1  ON   132
    udSe_23                -4.531283e-02    1  ON   133
    udSe_24                -1.236413e-02    1  ON   134
    udSe_25                -4.680900e-03    1  ON   135

  Updated wavefunction vp file optJ123.s000.vp.h5
  Updated wavefunction xml file optJ123.s000.opt.xml
  QMCLinearOptimizeBatched Execution time = 2.172 secs

=========================================================
  Start QMCLinearOptimizeBatched
  File Root optJ123.s001
=========================================================
  Random walking without drift
 Legacy constructor adding a default LocalEnergyEstimator for the MainEstimator 

=========================================================
  Start VMCBatched
  File Root optJ123.s001
=========================================================
==============================================================
--- Memory usage report : VMCBatched before initialization ---
==============================================================
Available memory on node 0, free + buffers : 1074805 MiB
Memory footprint by rank 0 on node 0       :     998 MiB
==============================================================
VMCBatched Driver running with
             total_walkers     = 3264
             walkers_per_rank  = [51(x64)]
             num_crowds        = 51
  on rank 0, walkers_per_crowd = [1(x51)]

                         steps = 7 (different from input value 0)
                        blocks = 10

VMCBatched Driver collecting samples, samples per rank = 3570
                                      total samples    = 228480

 Using QMCCostFunctionBatched::QMCCostFunctionBatched
 TrialWaveFunction "psi0" has 8 optimizable objects:
   'eGe' optimized
   'eSe' optimized
   'uu' optimized
   'ud' optimized
   'uuGe' optimized
   'udGe' optimized
   'uuSe' optimized
   'udSe' optimized
 Variational subset selects 136 parameters.
 In total 136 parameters being optimized after applying constraints.
 Using Default Cost Function: Cost = <|E-E_ff|^2>

******************
Generating samples
******************

===================================================================
--- Memory usage report : VMCBatched after initialLogEvaluation ---
===================================================================
Available memory on node 0, free + buffers : 1074806 MiB
Memory footprint by rank 0 on node 0       :     998 MiB
===================================================================
=====================================================
--- Memory usage report : VMCBatched after Warmup ---
=====================================================
Available memory on node 0, free + buffers : 1074805 MiB
Memory footprint by rank 0 on node 0       :     998 MiB
=====================================================
VMC Warmup completed in 1.6882e-01 secs
Completed block    1 of 10 average 0.1803 secs/block after 8.475 secs
Completed block    2 of 10 average 0.1695 secs/block after 8.635 secs
Completed block    5 of 10 average 0.1628 secs/block after 9.113 secs
Completed block    7 of 10 average 0.1612 secs/block after 9.429 secs
Completed block   10 of 10 average 0.1592 secs/block after 9.896 secs
====================================================
  End of a VMC section
    QMC counter        = 1
    time step          = 0.3
    reference energy   = -52.6263
    reference variance = 1.34901
====================================================
=============================================
--- Memory usage report : VMCBatched ends ---
=============================================
Available memory on node 0, free + buffers : 1074806 MiB
Memory footprint by rank 0 on node 0       :     998 MiB
=============================================
  Carry over 3264 walker configurations to the next QMC driver.
  Execution time (sampling) = 1.7915e+00

*****************************
Compute parameter derivatives
*****************************

 Found 2 wavefunction dependent components in the Hamiltonian 'Kinetic' 'NonLocalECP'.
  VMC Eavg = -5.2626e+01
  VMC Evar = 1.3493e+00
  Total weights = 2.2848e+05
  Execution time (derivatives) = 3.7324e-01

*****************************************
Building overlap and Hamiltonian matrices
*****************************************
  Execution time (building matrices) = 5.5733e-02

**************************
Solving eigenvalue problem
**************************
  Using inverse + regular eigenvalue solver (geev)
  Execution time (eigenvalue) = 8.5973e-03

Among totally 136 optimized parameters, largest LM parameter change : 2.6776e-02 at parameter 113
Effective weight of all the samples measured by correlated sampling is 9.9984e-01

******************************************************************************
Init Cost =  -4.7229e+01    New Cost =  -4.7227e+01  Delta Cost =   1.3429e-03
******************************************************************************

The new set of parameters is valid. Updating the trial wave function!

*****************************************************************************
Applying the update for shift_i =   1.0000e-02     and shift_s =   6.2500e-02
*****************************************************************************
  Updated wave function parameters:
       Name                        Value Type Use Index
    ------- ---------------------------- ---- --- -----
      eGe_0                -8.535177e-02    1  ON     0
      eGe_1                -1.016165e-01    1  ON     1
      eGe_2                -8.626532e-02    1  ON     2
      eGe_3                -5.835263e-02    1  ON     3
      eGe_4                -5.254822e-02    1  ON     4
      eGe_5                -3.830657e-02    1  ON     5
      eGe_6                -2.622113e-02    1  ON     6
      eGe_7                -1.948731e-02    1  ON     7
      eSe_0                -3.239084e-01    1  ON     8
      eSe_1                -3.860276e-01    1  ON     9
      eSe_2                -3.354484e-01    1  ON    10
      eSe_3                -2.810730e-01    1  ON    11
      eSe_4                -2.292080e-01    1  ON    12
      eSe_5                -1.587555e-01    1  ON    13
      eSe_6                -9.629638e-02    1  ON    14
      eSe_7                -5.289190e-02    1  ON    15
       uu_0                 4.118551e-01    1  ON    16
       uu_1                 3.308393e-01    1  ON    17
       uu_2                 2.517612e-01    1  ON    18
       uu_3                 1.864883e-01    1  ON    19
       uu_4                 1.305543e-01    1  ON    20
       uu_5                 8.716457e-02    1  ON    21
       uu_6                 4.986448e-02    1  ON    22
       uu_7                 2.716279e-02    1  ON    23
       ud_0                 6.986588e-01    1  ON    24
       ud_1                 5.240162e-01    1  ON    25
       ud_2                 3.822853e-01    1  ON    26
       ud_3                 2.696028e-01    1  ON    27
       ud_4                 1.800021e-01    1  ON    28
       ud_5                 1.133192e-01    1  ON    29
       ud_6                 6.221680e-02    1  ON    30
       ud_7                 3.209880e-02    1  ON    31
     uuGe_0                -9.119229e-03    1  ON    32
     uuGe_1                 1.256327e-02    1  ON    33
     uuGe_2                -5.148006e-03    1  ON    34
     uuGe_3                 1.312567e-02    1  ON    35
     uuGe_4                -4.365382e-03    1  ON    36
     uuGe_5                -2.376154e-03    1  ON    37
     uuGe_6                -6.706668e-03    1  ON    38
     uuGe_7                -2.157846e-03    1  ON    39
     uuGe_8                 5.860910e-03    1  ON    40
     uuGe_9                -1.082901e-03    1  ON    41
    uuGe_10                -3.484954e-03    1  ON    42
    uuGe_11                 7.924970e-04    1  ON    43
    uuGe_12                 7.701434e-03    1  ON    44
    uuGe_13                 5.639730e-03    1  ON    45
    uuGe_14                -1.879075e-03    1  ON    46
    uuGe_15                -1.476574e-02    1  ON    47
    uuGe_16                 1.469576e-03    1  ON    48
    uuGe_17                -1.656238e-03    1  ON    49
    uuGe_18                 4.920763e-04    1  ON    50
    uuGe_19                 5.142297e-03    1  ON    51
    uuGe_20                 4.395031e-03    1  ON    52
    uuGe_21                 1.009618e-03    1  ON    53
    uuGe_22                 3.524006e-03    1  ON    54
    uuGe_23                 2.427980e-03    1  ON    55
    uuGe_24                 1.455930e-03    1  ON    56
    uuGe_25                 7.187077e-04    1  ON    57
     udGe_0                -3.829121e-02    1  ON    58
     udGe_1                 2.990770e-02    1  ON    59
     udGe_2                -3.067391e-02    1  ON    60
     udGe_3                 3.589702e-02    1  ON    61
     udGe_4                -2.803314e-02    1  ON    62
     udGe_5                -5.762711e-03    1  ON    63
     udGe_6                -1.392883e-02    1  ON    64
     udGe_7                -8.055678e-03    1  ON    65
     udGe_8                 1.786642e-02    1  ON    66
     udGe_9                -1.367631e-02    1  ON    67
    udGe_10                -6.486902e-03    1  ON    68
    udGe_11                -6.194404e-03    1  ON    69
    udGe_12                 2.774987e-02    1  ON    70
    udGe_13                 9.657478e-03    1  ON    71
    udGe_14                -1.690358e-02    1  ON    72
    udGe_15                -3.724809e-02    1  ON    73
    udGe_16                -5.476235e-03    1  ON    74
    udGe_17                -5.967281e-03    1  ON    75
    udGe_18                -1.733764e-03    1  ON    76
    udGe_19                 2.107903e-02    1  ON    77
    udGe_20                -9.127924e-03    1  ON    78
    udGe_21                -6.734666e-03    1  ON    79
    udGe_22                 1.502761e-02    1  ON    80
    udGe_23                -8.698924e-03    1  ON    81
    udGe_24                -5.630633e-03    1  ON    82
    udGe_25                -6.510216e-03    1  ON    83
     uuSe_0                -1.533571e-02    1  ON    84
     uuSe_1                 1.669204e-02    1  ON    85
     uuSe_2                -1.049515e-02    1  ON    86
     uuSe_3                 2.479567e-02    1  ON    87
     uuSe_4                -3.900433e-03    1  ON    88
     uuSe_5                -7.642435e-04    1  ON    89
     uuSe_6                -3.961987e-03    1  ON    90
     uuSe_7                 1.680578e-03    1  ON    91
     uuSe_8                 9.014573e-03    1  ON    92
     uuSe_9                -6.279106e-03    1  ON    93
    uuSe_10                -7.286010e-03    1  ON    94
    uuSe_11                 4.404748e-03    1  ON    95
    uuSe_12                 1.472160e-02    1  ON    96
    uuSe_13                 5.313688e-03    1  ON    97
    uuSe_14                -4.638710e-03    1  ON    98
    uuSe_15                -2.473636e-02    1  ON    99
    uuSe_16                -7.432303e-03    1  ON   100
    uuSe_17                -6.209783e-03    1  ON   101
    uuSe_18                 1.940708e-03    1  ON   102
    uuSe_19                 1.647241e-02    1  ON   103
    uuSe_20                -2.132197e-02    1  ON   104
    uuSe_21                -1.085951e-03    1  ON   105
    uuSe_22                 1.642901e-02    1  ON   106
    uuSe_23                -2.020154e-02    1  ON   107
    uuSe_24                -7.962354e-03    1  ON   108
    uuSe_25                -1.004678e-02    1  ON   109
     udSe_0                -4.128278e-02    1  ON   110
     udSe_1                 2.693218e-02    1  ON   111
     udSe_2                -2.369890e-02    1  ON   112
     udSe_3                 7.518446e-02    1  ON   113
     udSe_4                -2.174499e-02    1  ON   114
     udSe_5                -2.677632e-02    1  ON   115
     udSe_6                 5.808157e-03    1  ON   116
     udSe_7                 1.053369e-02    1  ON   117
     udSe_8                 6.395600e-04    1  ON   118
     udSe_9                -1.323332e-02    1  ON   119
    udSe_10                 4.859295e-03    1  ON   120
    udSe_11                 1.567237e-02    1  ON   121
    udSe_12                 8.372357e-03    1  ON   122
    udSe_13                 2.094725e-02    1  ON   123
    udSe_14                -1.378282e-02    1  ON   124
    udSe_15                -3.774737e-02    1  ON   125
    udSe_16                -1.666034e-02    1  ON   126
    udSe_17                 7.325952e-04    1  ON   127
    udSe_18                 1.674181e-02    1  ON   128
    udSe_19                 2.666464e-02    1  ON   129
    udSe_20                -5.927316e-02    1  ON   130
    udSe_21                 8.288800e-03    1  ON   131
    udSe_22                 3.055007e-02    1  ON   132
    udSe_23                -7.062722e-02    1  ON   133
    udSe_24                -2.153368e-02    1  ON   134
    udSe_25                -1.200318e-02    1  ON   135

  Updated wavefunction vp file optJ123.s001.vp.h5
  Updated wavefunction xml file optJ123.s001.opt.xml
  QMCLinearOptimizeBatched Execution time = 2.475 secs

=========================================================
  Start QMCLinearOptimizeBatched
  File Root optJ123.s002
=========================================================
  Random walking without drift
 Legacy constructor adding a default LocalEnergyEstimator for the MainEstimator 

=========================================================
  Start VMCBatched
  File Root optJ123.s002
=========================================================
==============================================================
--- Memory usage report : VMCBatched before initialization ---
==============================================================
Available memory on node 0, free + buffers : 1074802 MiB
Memory footprint by rank 0 on node 0       :    1002 MiB
==============================================================
VMCBatched Driver running with
             total_walkers     = 3264
             walkers_per_rank  = [51(x64)]
             num_crowds        = 51
  on rank 0, walkers_per_crowd = [1(x51)]

                         steps = 7 (different from input value 0)
                        blocks = 10

VMCBatched Driver collecting samples, samples per rank = 3570
                                      total samples    = 228480

 Using QMCCostFunctionBatched::QMCCostFunctionBatched
 TrialWaveFunction "psi0" has 8 optimizable objects:
   'eGe' optimized
   'eSe' optimized
   'uu' optimized
   'ud' optimized
   'uuGe' optimized
   'udGe' optimized
   'uuSe' optimized
   'udSe' optimized
 Variational subset selects 136 parameters.
 In total 136 parameters being optimized after applying constraints.
 Using Default Cost Function: Cost = <|E-E_ff|^2>

******************
Generating samples
******************

===================================================================
--- Memory usage report : VMCBatched after initialLogEvaluation ---
===================================================================
Available memory on node 0, free + buffers : 1074802 MiB
Memory footprint by rank 0 on node 0       :    1002 MiB
===================================================================
=====================================================
--- Memory usage report : VMCBatched after Warmup ---
=====================================================
Available memory on node 0, free + buffers : 1074802 MiB
Memory footprint by rank 0 on node 0       :    1002 MiB
=====================================================
VMC Warmup completed in 1.6950e-01 secs
Completed block    1 of 10 average 0.1663 secs/block after 10.95 secs
Completed block    2 of 10 average 0.1609 secs/block after 11.11 secs
Completed block    5 of 10 average 0.1581 secs/block after 11.58 secs
Completed block    7 of 10 average 0.1594 secs/block after 11.91 secs
Completed block   10 of 10 average 0.1569 secs/block after 12.36 secs
====================================================
  End of a VMC section
    QMC counter        = 2
    time step          = 0.3
    reference energy   = -52.6262
    reference variance = 1.35639
====================================================
=============================================
--- Memory usage report : VMCBatched ends ---
=============================================
Available memory on node 0, free + buffers : 1074804 MiB
Memory footprint by rank 0 on node 0       :    1002 MiB
=============================================
  Carry over 3264 walker configurations to the next QMC driver.
  Execution time (sampling) = 1.7810e+00

*****************************
Compute parameter derivatives
*****************************

 Found 2 wavefunction dependent components in the Hamiltonian 'Kinetic' 'NonLocalECP'.
  VMC Eavg = -5.2626e+01
  VMC Evar = 1.3562e+00
  Total weights = 2.2848e+05
  Execution time (derivatives) = 4.2420e-01

*****************************************
Building overlap and Hamiltonian matrices
*****************************************
  Execution time (building matrices) = 5.3210e-02

**************************
Solving eigenvalue problem
**************************
  Using inverse + regular eigenvalue solver (geev)
  Execution time (eigenvalue) = 9.2913e-03

Among totally 136 optimized parameters, largest LM parameter change : 1.7500e-02 at parameter 113
Effective weight of all the samples measured by correlated sampling is 9.9980e-01

******************************************************************************
Init Cost =  -4.7228e+01    New Cost =  -4.7229e+01  Delta Cost =  -5.8778e-04
******************************************************************************

The new set of parameters is valid. Updating the trial wave function!

*****************************************************************************
Applying the update for shift_i =   1.0000e-02     and shift_s =   1.5625e-02
*****************************************************************************
  Updated wave function parameters:
       Name                        Value Type Use Index
    ------- ---------------------------- ---- --- -----
      eGe_0                -8.603045e-02    1  ON     0
      eGe_1                -9.708191e-02    1  ON     1
      eGe_2                -8.264504e-02    1  ON     2
      eGe_3                -5.431197e-02    1  ON     3
      eGe_4                -4.912928e-02    1  ON     4
      eGe_5                -3.628477e-02    1  ON     5
      eGe_6                -2.461496e-02    1  ON     6
      eGe_7                -1.935857e-02    1  ON     7
      eSe_0                -3.309903e-01    1  ON     8
      eSe_1                -3.852887e-01    1  ON     9
      eSe_2                -3.361509e-01    1  ON    10
      eSe_3                -2.824188e-01    1  ON    11
      eSe_4                -2.300071e-01    1  ON    12
      eSe_5                -1.599296e-01    1  ON    13
      eSe_6                -9.739951e-02    1  ON    14
      eSe_7                -5.350074e-02    1  ON    15
       uu_0                 4.153011e-01    1  ON    16
       uu_1                 3.303055e-01    1  ON    17
       uu_2                 2.513915e-01    1  ON    18
       uu_3                 1.865421e-01    1  ON    19
       uu_4                 1.303222e-01    1  ON    20
       uu_5                 8.651946e-02    1  ON    21
       uu_6                 4.943767e-02    1  ON    22
       uu_7                 2.695161e-02    1  ON    23
       ud_0                 7.005697e-01    1  ON    24
       ud_1                 5.244570e-01    1  ON    25
       ud_2                 3.828326e-01    1  ON    26
       ud_3                 2.698400e-01    1  ON    27
       ud_4                 1.802737e-01    1  ON    28
       ud_5                 1.136556e-01    1  ON    29
       ud_6                 6.253068e-02    1  ON    30
       ud_7                 3.215178e-02    1  ON    31
     uuGe_0                -1.068959e-02    1  ON    32
     uuGe_1                 1.478147e-02    1  ON    33
     uuGe_2                -7.911335e-03    1  ON    34
     uuGe_3                 1.480119e-02    1  ON    35
     uuGe_4                -4.281932e-03    1  ON    36
     uuGe_5                 5.108357e-04    1  ON    37
     uuGe_6                -6.790628e-03    1  ON    38
     uuGe_7                -2.028410e-03    1  ON    39
     uuGe_8                 7.597294e-03    1  ON    40
     uuGe_9                -2.365532e-03    1  ON    41
    uuGe_10                -3.898604e-03    1  ON    42
    uuGe_11                 4.512963e-04    1  ON    43
    uuGe_12                 7.614523e-03    1  ON    44
    uuGe_13                 5.167238e-03    1  ON    45
    uuGe_14                -2.631766e-03    1  ON    46
    uuGe_15                -1.696608e-02    1  ON    47
    uuGe_16                -4.760397e-04    1  ON    48
    uuGe_17                -3.547005e-03    1  ON    49
    uuGe_18                -6.401671e-04    1  ON    50
    uuGe_19                 5.336918e-03    1  ON    51
    uuGe_20                -7.931231e-05    1  ON    52
    uuGe_21                 3.844577e-04    1  ON    53
    uuGe_22                 5.711765e-03    1  ON    54
    uuGe_23                -2.664942e-04    1  ON    55
    uuGe_24                 2.488968e-03    1  ON    56
    uuGe_25                 3.959770e-03    1  ON    57
     udGe_0                -4.021057e-02    1  ON    58
     udGe_1                 3.200840e-02    1  ON    59
     udGe_2                -3.544618e-02    1  ON    60
     udGe_3                 4.728168e-02    1  ON    61
     udGe_4                -2.703881e-02    1  ON    62
     udGe_5                -7.898145e-03    1  ON    63
     udGe_6                -1.306476e-02    1  ON    64
     udGe_7                -6.771808e-03    1  ON    65
     udGe_8                 2.159100e-02    1  ON    66
     udGe_9                -1.604170e-02    1  ON    67
    udGe_10                -1.073415e-02    1  ON    68
    udGe_11                -5.287584e-03    1  ON    69
    udGe_12                 3.065299e-02    1  ON    70
    udGe_13                 1.419593e-02    1  ON    71
    udGe_14                -1.700280e-02    1  ON    72
    udGe_15                -4.242741e-02    1  ON    73
    udGe_16                -9.583475e-03    1  ON    74
    udGe_17                -1.069127e-02    1  ON    75
    udGe_18                -2.684459e-03    1  ON    76
    udGe_19                 2.400597e-02    1  ON    77
    udGe_20                -1.578809e-02    1  ON    78
    udGe_21                -7.000843e-03    1  ON    79
    udGe_22                 1.789586e-02    1  ON    80
    udGe_23                -1.321051e-02    1  ON    81
    udGe_24                -5.364892e-03    1  ON    82
    udGe_25                -7.853255e-03    1  ON    83
     uuSe_0                -2.064094e-02    1  ON    84
     uuSe_1                 1.295185e-02    1  ON    85
     uuSe_2                -1.675474e-02    1  ON    86
     uuSe_3                 3.055448e-02    1  ON    87
     uuSe_4                 1.210053e-03    1  ON    88
     uuSe_5                -3.225603e-03    1  ON    89
     uuSe_6                 1.959132e-03    1  ON    90
     uuSe_7                 3.625138e-03    1  ON    91
     uuSe_8                 8.133853e-03    1  ON    92
     uuSe_9                -5.063205e-03    1  ON    93
    uuSe_10                -1.097690e-02    1  ON    94
    uuSe_11                 2.163637e-03    1  ON    95
    uuSe_12                 1.295364e-02    1  ON    96
    uuSe_13                 1.501700e-02    1  ON    97
    uuSe_14                -4.557714e-03    1  ON    98
    uuSe_15                -2.579475e-02    1  ON    99
    uuSe_16                -1.085600e-02    1  ON   100
    uuSe_17                -1.181088e-02    1  ON   101
    uuSe_18                 7.455736e-04    1  ON   102
    uuSe_19                 2.058786e-02    1  ON   103
    uuSe_20                -2.613757e-02    1  ON   104
    uuSe_21                 8.915749e-04    1  ON   105
    uuSe_22                 2.291139e-02    1  ON   106
    uuSe_23                -2.436021e-02    1  ON   107
    uuSe_24                -8.242481e-03    1  ON   108
    uuSe_25                -1.665062e-02    1  ON   109
     udSe_0                -5.235647e-02    1  ON   110
     udSe_1                 1.882844e-02    1  ON   111
     udSe_2                -2.834287e-02    1  ON   112
     udSe_3                 9.268469e-02    1  ON   113
     udSe_4                -2.618916e-02    1  ON   114
     udSe_5                -2.962842e-02    1  ON   115
     udSe_6                 1.805218e-02    1  ON   116
     udSe_7                 1.472271e-02    1  ON   117
     udSe_8                -1.101755e-02    1  ON   118
     udSe_9                -1.477897e-02    1  ON   119
    udSe_10                 7.072296e-03    1  ON   120
    udSe_11                 1.778513e-02    1  ON   121
    udSe_12                 1.422992e-03    1  ON   122
    udSe_13                 3.350587e-02    1  ON   123
    udSe_14                -1.097933e-02    1  ON   124
    udSe_15                -3.816997e-02    1  ON   125
    udSe_16                -2.168172e-02    1  ON   126
    udSe_17                 2.792621e-03    1  ON   127
    udSe_18                 2.517376e-02    1  ON   128
    udSe_19                 3.113101e-02    1  ON   129
    udSe_20                -7.129423e-02    1  ON   130
    udSe_21                 2.240583e-02    1  ON   131
    udSe_22                 3.521223e-02    1  ON   132
    udSe_23                -8.796357e-02    1  ON   133
    udSe_24                -2.188442e-02    1  ON   134
    udSe_25                -2.256050e-02    1  ON   135

  Updated wavefunction vp file optJ123.s002.vp.h5
  Updated wavefunction xml file optJ123.s002.opt.xml
  QMCLinearOptimizeBatched Execution time = 2.483 secs

=========================================================
  Start QMCLinearOptimizeBatched
  File Root optJ123.s003
=========================================================
  Random walking without drift
 Legacy constructor adding a default LocalEnergyEstimator for the MainEstimator 

=========================================================
  Start VMCBatched
  File Root optJ123.s003
=========================================================
==============================================================
--- Memory usage report : VMCBatched before initialization ---
==============================================================
Available memory on node 0, free + buffers : 1074798 MiB
Memory footprint by rank 0 on node 0       :    1005 MiB
==============================================================
VMCBatched Driver running with
             total_walkers     = 3264
             walkers_per_rank  = [51(x64)]
             num_crowds        = 51
  on rank 0, walkers_per_crowd = [1(x51)]

                         steps = 7 (different from input value 0)
                        blocks = 10

VMCBatched Driver collecting samples, samples per rank = 3570
                                      total samples    = 228480

 Using QMCCostFunctionBatched::QMCCostFunctionBatched
 TrialWaveFunction "psi0" has 8 optimizable objects:
   'eGe' optimized
   'eSe' optimized
   'uu' optimized
   'ud' optimized
   'uuGe' optimized
   'udGe' optimized
   'uuSe' optimized
   'udSe' optimized
 Variational subset selects 136 parameters.
 In total 136 parameters being optimized after applying constraints.
 Using Default Cost Function: Cost = <|E-E_ff|^2>

******************
Generating samples
******************

===================================================================
--- Memory usage report : VMCBatched after initialLogEvaluation ---
===================================================================
Available memory on node 0, free + buffers : 1074798 MiB
Memory footprint by rank 0 on node 0       :    1006 MiB
===================================================================
=====================================================
--- Memory usage report : VMCBatched after Warmup ---
=====================================================
Available memory on node 0, free + buffers : 1074798 MiB
Memory footprint by rank 0 on node 0       :    1006 MiB
=====================================================
VMC Warmup completed in 1.6904e-01 secs
Completed block    1 of 10 average 0.1382 secs/block after 13.4 secs
Completed block    2 of 10 average 0.1646 secs/block after 13.59 secs
Completed block    5 of 10 average 0.1562 secs/block after 14.05 secs
Completed block    7 of 10 average 0.1573 secs/block after 14.37 secs
Completed block   10 of 10 average 0.1583 secs/block after 14.86 secs
====================================================
  End of a VMC section
    QMC counter        = 3
    time step          = 0.3
    reference energy   = -52.6299
    reference variance = 1.34966
====================================================
=============================================
--- Memory usage report : VMCBatched ends ---
=============================================
Available memory on node 0, free + buffers : 1074799 MiB
Memory footprint by rank 0 on node 0       :    1006 MiB
=============================================
  Carry over 3264 walker configurations to the next QMC driver.
  Execution time (sampling) = 1.7914e+00

*****************************
Compute parameter derivatives
*****************************

 Found 2 wavefunction dependent components in the Hamiltonian 'Kinetic' 'NonLocalECP'.
  VMC Eavg = -5.2630e+01
  VMC Evar = 1.3495e+00
  Total weights = 2.2848e+05
  Execution time (derivatives) = 4.0367e-01

*****************************************
Building overlap and Hamiltonian matrices
*****************************************
  Execution time (building matrices) = 5.7434e-02

**************************
Solving eigenvalue problem
**************************
  Using inverse + regular eigenvalue solver (geev)
  Execution time (eigenvalue) = 8.5911e-03

Among totally 136 optimized parameters, largest LM parameter change : 1.7147e-02 at parameter 113
Effective weight of all the samples measured by correlated sampling is 9.9985e-01

******************************************************************************
Init Cost =  -4.7232e+01    New Cost =  -4.7231e+01  Delta Cost =   6.6845e-04
******************************************************************************

The new set of parameters is valid. Updating the trial wave function!

*****************************************************************************
Applying the update for shift_i =   1.0000e-02     and shift_s =   3.9062e-03
*****************************************************************************
  Updated wave function parameters:
       Name                        Value Type Use Index
    ------- ---------------------------- ---- --- -----
      eGe_0                -9.149909e-02    1  ON     0
      eGe_1                -9.928222e-02    1  ON     1
      eGe_2                -8.564207e-02    1  ON     2
      eGe_3                -5.725018e-02    1  ON     3
      eGe_4                -5.087633e-02    1  ON     4
      eGe_5                -3.727125e-02    1  ON     5
      eGe_6                -2.470976e-02    1  ON     6
      eGe_7                -1.946383e-02    1  ON     7
      eSe_0                -3.320098e-01    1  ON     8
      eSe_1                -3.908992e-01    1  ON     9
      eSe_2                -3.389162e-01    1  ON    10
      eSe_3                -2.842234e-01    1  ON    11
      eSe_4                -2.316044e-01    1  ON    12
      eSe_5                -1.603249e-01    1  ON    13
[...]
       uu_6                 5.005700e-02    1  ON    22
       uu_7                 2.707714e-02    1  ON    23
       ud_0                 7.003538e-01    1  ON    24
       ud_1                 5.233273e-01    1  ON    25
       ud_2                 3.816190e-01    1  ON    26
       ud_3                 2.687179e-01    1  ON    27
       ud_4                 1.792840e-01    1  ON    28
       ud_5                 1.126137e-01    1  ON    29
       ud_6                 6.171059e-02    1  ON    30
       ud_7                 3.157978e-02    1  ON    31
     uuGe_0                -2.046887e-02    1  ON    32
     uuGe_1                 2.061417e-02    1  ON    33
     uuGe_2                -1.963752e-02    1  ON    34
     uuGe_3                 2.685069e-02    1  ON    35
     uuGe_4                -1.789019e-03    1  ON    36
     uuGe_5                 4.236963e-03    1  ON    37
     uuGe_6                -7.854856e-03    1  ON    38
     uuGe_7                -2.730592e-03    1  ON    39
     uuGe_8                 1.520479e-02    1  ON    40
     uuGe_9                -6.685566e-03    1  ON    41
    uuGe_10                -1.097020e-02    1  ON    42
    uuGe_11                -1.027734e-03    1  ON    43
    uuGe_12                 1.246153e-02    1  ON    44
    uuGe_13                 1.201589e-02    1  ON    45
    uuGe_14                -1.571411e-03    1  ON    46
    uuGe_15                -2.478395e-02    1  ON    47
    uuGe_16                -5.204314e-03    1  ON    48
    uuGe_17                -1.207802e-02    1  ON    49
    uuGe_18                -4.036724e-03    1  ON    50
    uuGe_19                 7.941517e-03    1  ON    51
    uuGe_20                -4.978510e-03    1  ON    52
    uuGe_21                 7.247110e-05    1  ON    53
    uuGe_22                 7.261991e-03    1  ON    54
    uuGe_23                -1.669681e-03    1  ON    55
    uuGe_24                 5.664112e-03    1  ON    56
    uuGe_25                 2.995253e-03    1  ON    57
     udGe_0                -5.537439e-02    1  ON    58
     udGe_1                 2.140080e-02    1  ON    59
     udGe_2                -5.981829e-02    1  ON    60
     udGe_3                 8.066117e-02    1  ON    61
     udGe_4                -2.504391e-02    1  ON    62
     udGe_5                -1.525460e-02    1  ON    63
     udGe_6                 4.435479e-03    1  ON    64
     udGe_7                -1.517405e-03    1  ON    65
     udGe_8                 2.184591e-02    1  ON    66
     udGe_9                -2.185489e-02    1  ON    67
    udGe_10                -2.199984e-02    1  ON    68
    udGe_11                -1.102548e-02    1  ON    69
    udGe_12                 3.008238e-02    1  ON    70
    udGe_13                 4.195997e-02    1  ON    71
    udGe_14                -1.893935e-02    1  ON    72
    udGe_15                -5.032218e-02    1  ON    73
    udGe_16                -2.533409e-02    1  ON    74
    udGe_17                -2.702061e-02    1  ON    75
    udGe_18                -4.482452e-03    1  ON    76
    udGe_19                 3.688994e-02    1  ON    77
    udGe_20                -3.505261e-02    1  ON    78
    udGe_21                 1.545107e-03    1  ON    79
    udGe_22                 3.245448e-02    1  ON    80
    udGe_23                -2.700440e-02    1  ON    81
    udGe_24                -1.743281e-03    1  ON    82
    udGe_25                -2.633833e-02    1  ON    83
     uuSe_0                -3.663139e-02    1  ON    84
     uuSe_1                 6.652598e-03    1  ON    85
     uuSe_2                -1.923727e-02    1  ON    86
     uuSe_3                 4.371835e-02    1  ON    87
     uuSe_4                -3.393461e-03    1  ON    88
     uuSe_5                -7.199286e-03    1  ON    89
     uuSe_6                 1.420767e-02    1  ON    90
     uuSe_7                 8.907834e-03    1  ON    91
     uuSe_8                -7.105304e-03    1  ON    92
     uuSe_9                -4.485786e-03    1  ON    93
    uuSe_10                -1.097981e-02    1  ON    94
    uuSe_11                 3.125175e-03    1  ON    95
    uuSe_12                 6.344905e-03    1  ON    96
    uuSe_13                 3.513657e-02    1  ON    97
    uuSe_14                 5.881370e-03    1  ON    98
    uuSe_15                -2.968931e-02    1  ON    99
    uuSe_16                -1.704418e-02    1  ON   100
    uuSe_17                -1.821554e-02    1  ON   101
    uuSe_18                 3.560782e-03    1  ON   102
    uuSe_19                 2.507615e-02    1  ON   103
    uuSe_20                -3.955892e-02    1  ON   104
    uuSe_21                 9.240060e-03    1  ON   105
    uuSe_22                 3.284695e-02    1  ON   106
    uuSe_23                -3.953028e-02    1  ON   107
    uuSe_24                -8.218891e-03    1  ON   108
    uuSe_25                -2.924034e-02    1  ON   109
     udSe_0                -9.129915e-02    1  ON   110
     udSe_1                -2.515318e-02    1  ON   111
     udSe_2                -2.872351e-02    1  ON   112
     udSe_3                 1.705752e-01    1  ON   113
     udSe_4                -8.713258e-02    1  ON   114
     udSe_5                -3.152638e-02    1  ON   115
     udSe_6                 6.405749e-02    1  ON   116
     udSe_7                 2.809749e-02    1  ON   117
     udSe_8                -7.360404e-02    1  ON   118
     udSe_9                -3.272192e-02    1  ON   119
    udSe_10                 2.729166e-02    1  ON   120
    udSe_11                 2.811026e-02    1  ON   121
    udSe_12                -2.210794e-02    1  ON   122
    udSe_13                 8.846571e-02    1  ON   123
    udSe_14                 7.908460e-03    1  ON   124
    udSe_15                -3.355799e-02    1  ON   125
    udSe_16                -3.728720e-02    1  ON   126
    udSe_17                 1.854597e-02    1  ON   127
    udSe_18                 5.438416e-02    1  ON   128
    udSe_19                 3.072784e-02    1  ON   129
    udSe_20                -9.645035e-02    1  ON   130
    udSe_21                 4.634895e-02    1  ON   131
    udSe_22                 3.506456e-02    1  ON   132
    udSe_23                -1.415763e-01    1  ON   133
    udSe_24                -3.778665e-02    1  ON   134
    udSe_25                -2.580413e-02    1  ON   135

  Updated wavefunction vp file optJ123.s008.vp.h5
  Updated wavefunction xml file optJ123.s008.opt.xml
  QMCLinearOptimizeBatched Execution time = 2.475 secs

=========================================================
  Start QMCLinearOptimizeBatched
  File Root optJ123.s009
=========================================================
  Random walking without drift
 Legacy constructor adding a default LocalEnergyEstimator for the MainEstimator 

=========================================================
  Start VMCBatched
  File Root optJ123.s009
=========================================================
==============================================================
--- Memory usage report : VMCBatched before initialization ---
==============================================================
Available memory on node 0, free + buffers : 1074768 MiB
Memory footprint by rank 0 on node 0       :    1011 MiB
==============================================================
VMCBatched Driver running with
             total_walkers     = 3264
             walkers_per_rank  = [51(x64)]
             num_crowds        = 51
  on rank 0, walkers_per_crowd = [1(x51)]

                         steps = 7 (different from input value 0)
                        blocks = 10

VMCBatched Driver collecting samples, samples per rank = 3570
                                      total samples    = 228480

 Using QMCCostFunctionBatched::QMCCostFunctionBatched
 TrialWaveFunction "psi0" has 8 optimizable objects:
   'eGe' optimized
   'eSe' optimized
   'uu' optimized
   'ud' optimized
   'uuGe' optimized
   'udGe' optimized
   'uuSe' optimized
   'udSe' optimized
 Variational subset selects 136 parameters.
 In total 136 parameters being optimized after applying constraints.
 Using Default Cost Function: Cost = <|E-E_ff|^2>

******************
Generating samples
******************

===================================================================
--- Memory usage report : VMCBatched after initialLogEvaluation ---
===================================================================
Available memory on node 0, free + buffers : 1074768 MiB
Memory footprint by rank 0 on node 0       :    1011 MiB
===================================================================
=====================================================
--- Memory usage report : VMCBatched after Warmup ---
=====================================================
Available memory on node 0, free + buffers : 1074768 MiB
Memory footprint by rank 0 on node 0       :    1011 MiB
=====================================================
VMC Warmup completed in 1.6905e-01 secs
Completed block    1 of 10 average 0.1544 secs/block after 28.36 secs
Completed block    2 of 10 average 0.1673 secs/block after 28.54 secs
Completed block    5 of 10 average 0.1615 secs/block after 29.02 secs
Completed block    7 of 10 average 0.1584 secs/block after 29.32 secs
Completed block   10 of 10 average 0.1606 secs/block after 29.82 secs
====================================================
  End of a VMC section
    QMC counter        = 9
    time step          = 0.3
    reference energy   = -52.6261
    reference variance = 1.3454
====================================================
=============================================
--- Memory usage report : VMCBatched ends ---
=============================================
Available memory on node 0, free + buffers : 1074771 MiB
Memory footprint by rank 0 on node 0       :    1011 MiB
=============================================
  Carry over 3264 walker configurations to the next QMC driver.
  Execution time (sampling) = 1.8031e+00

*****************************
Compute parameter derivatives
*****************************

 Found 2 wavefunction dependent components in the Hamiltonian 'Kinetic' 'NonLocalECP'.
  VMC Eavg = -5.2626e+01
  VMC Evar = 1.3459e+00
  Total weights = 2.2848e+05
  Execution time (derivatives) = 4.0412e-01

*****************************************
Building overlap and Hamiltonian matrices
*****************************************
  Execution time (building matrices) = 5.2638e-02

**************************
Solving eigenvalue problem
**************************
  Using inverse + regular eigenvalue solver (geev)
  Execution time (eigenvalue) = 9.0513e-03

Among totally 136 optimized parameters, largest LM parameter change : 1.1740e-02 at parameter 113
Effective weight of all the samples measured by correlated sampling is 9.9996e-01

******************************************************************************
Init Cost =  -4.7229e+01    New Cost =  -4.7228e+01  Delta Cost =   6.6884e-04
******************************************************************************

The new set of parameters is valid. Updating the trial wave function!

*****************************************************************************
Applying the update for shift_i =   1.0000e-02     and shift_s =   3.9062e-03
*****************************************************************************
  Updated wave function parameters:
       Name                        Value Type Use Index
    ------- ---------------------------- ---- --- -----
      eGe_0                -1.038388e-01    1  ON     0
      eGe_1                -9.741498e-02    1  ON     1
      eGe_2                -8.463867e-02    1  ON     2
      eGe_3                -5.584817e-02    1  ON     3
      eGe_4                -5.023353e-02    1  ON     4
      eGe_5                -3.623110e-02    1  ON     5
      eGe_6                -2.444679e-02    1  ON     6
      eGe_7                -1.885129e-02    1  ON     7
      eSe_0                -3.356145e-01    1  ON     8
      eSe_1                -3.829756e-01    1  ON     9
      eSe_2                -3.360180e-01    1  ON    10
      eSe_3                -2.811441e-01    1  ON    11
      eSe_4                -2.291739e-01    1  ON    12
      eSe_5                -1.586367e-01    1  ON    13
      eSe_6                -9.603836e-02    1  ON    14
      eSe_7                -5.242128e-02    1  ON    15
       uu_0                 4.181258e-01    1  ON    16
       uu_1                 3.285415e-01    1  ON    17
       uu_2                 2.511628e-01    1  ON    18
       uu_3                 1.867069e-01    1  ON    19
       uu_4                 1.306078e-01    1  ON    20
       uu_5                 8.708118e-02    1  ON    21
       uu_6                 4.975972e-02    1  ON    22
       uu_7                 2.717424e-02    1  ON    23
       ud_0                 7.015244e-01    1  ON    24
       ud_1                 5.243421e-01    1  ON    25
       ud_2                 3.822677e-01    1  ON    26
       ud_3                 2.690417e-01    1  ON    27
       ud_4                 1.794686e-01    1  ON    28
       ud_5                 1.129607e-01    1  ON    29
       ud_6                 6.185850e-02    1  ON    30
       ud_7                 3.183213e-02    1  ON    31
     uuGe_0                -2.550528e-02    1  ON    32
     uuGe_1                 2.387566e-02    1  ON    33
     uuGe_2                -2.199137e-02    1  ON    34
     uuGe_3                 2.975718e-02    1  ON    35
     uuGe_4                -4.352184e-03    1  ON    36
     uuGe_5                 2.727423e-03    1  ON    37
     uuGe_6                -9.916407e-03    1  ON    38
     uuGe_7                -4.129384e-03    1  ON    39
     uuGe_8                 1.596615e-02    1  ON    40
     uuGe_9                -7.041384e-03    1  ON    41
    uuGe_10                -1.166796e-02    1  ON    42
    uuGe_11                -2.052856e-03    1  ON    43
    uuGe_12                 1.475811e-02    1  ON    44
    uuGe_13                 1.447193e-02    1  ON    45
    uuGe_14                -2.372909e-03    1  ON    46
    uuGe_15                -2.741558e-02    1  ON    47
    uuGe_16                -4.123784e-03    1  ON    48
    uuGe_17                -1.205393e-02    1  ON    49
    uuGe_18                -3.852548e-03    1  ON    50
    uuGe_19                 9.721091e-03    1  ON    51
    uuGe_20                -1.945459e-03    1  ON    52
    uuGe_21                 6.531048e-04    1  ON    53
    uuGe_22                 8.693707e-03    1  ON    54
    uuGe_23                -4.426059e-06    1  ON    55
    uuGe_24                 5.861596e-03    1  ON    56
    uuGe_25                 2.158123e-03    1  ON    57
     udGe_0                -5.340189e-02    1  ON    58
     udGe_1                 1.533637e-02    1  ON    59
     udGe_2                -6.092932e-02    1  ON    60
     udGe_3                 8.316528e-02    1  ON    61
     udGe_4                -2.199101e-02    1  ON    62
     udGe_5                -1.754077e-02    1  ON    63
     udGe_6                 9.610642e-03    1  ON    64
     udGe_7                 4.800858e-04    1  ON    65
     udGe_8                 2.013140e-02    1  ON    66
     udGe_9                -2.030525e-02    1  ON    67
    udGe_10                -2.331096e-02    1  ON    68
    udGe_11                -1.179646e-02    1  ON    69
    udGe_12                 2.739779e-02    1  ON    70
    udGe_13                 4.717169e-02    1  ON    71
    udGe_14                -1.895710e-02    1  ON    72
    udGe_15                -4.891898e-02    1  ON    73
    udGe_16                -2.723610e-02    1  ON    74
    udGe_17                -2.951927e-02    1  ON    75
    udGe_18                -5.182057e-03    1  ON    76
    udGe_19                 3.770514e-02    1  ON    77
    udGe_20                -3.712906e-02    1  ON    78
    udGe_21                 1.730605e-03    1  ON    79
    udGe_22                 3.477189e-02    1  ON    80
    udGe_23                -2.870629e-02    1  ON    81
    udGe_24                -2.137556e-03    1  ON    82
    udGe_25                -2.846584e-02    1  ON    83
     uuSe_0                -3.639783e-02    1  ON    84
     uuSe_1                 8.766499e-03    1  ON    85
     uuSe_2                -1.772062e-02    1  ON    86
     uuSe_3                 4.676614e-02    1  ON    87
     uuSe_4                -6.207469e-03    1  ON    88
     uuSe_5                -7.616123e-03    1  ON    89
     uuSe_6                 1.427317e-02    1  ON    90
     uuSe_7                 9.927948e-03    1  ON    91
     uuSe_8                -8.358029e-03    1  ON    92
     uuSe_9                -4.685496e-03    1  ON    93
    uuSe_10                -9.795990e-03    1  ON    94
    uuSe_11                 4.730159e-03    1  ON    95
    uuSe_12                 6.355711e-03    1  ON    96
    uuSe_13                 3.524064e-02    1  ON    97
    uuSe_14                 6.759663e-03    1  ON    98
    uuSe_15                -3.203181e-02    1  ON    99
    uuSe_16                -1.782034e-02    1  ON   100
    uuSe_17                -1.822935e-02    1  ON   101
    uuSe_18                 3.966200e-03    1  ON   102
    uuSe_19                 2.509015e-02    1  ON   103
    uuSe_20                -4.294873e-02    1  ON   104
    uuSe_21                 9.058449e-03    1  ON   105
    uuSe_22                 3.372159e-02    1  ON   106
    uuSe_23                -4.232063e-02    1  ON   107
    uuSe_24                -7.647916e-03    1  ON   108
    uuSe_25                -2.821425e-02    1  ON   109
     udSe_0                -9.759684e-02    1  ON   110
     udSe_1                -3.241185e-02    1  ON   111
     udSe_2                -2.785706e-02    1  ON   112
     udSe_3                 1.823153e-01    1  ON   113
     udSe_4                -9.600781e-02    1  ON   114
     udSe_5                -3.139811e-02    1  ON   115
     udSe_6                 6.962236e-02    1  ON   116
     udSe_7                 2.990098e-02    1  ON   117
     udSe_8                -8.204292e-02    1  ON   118
     udSe_9                -3.780213e-02    1  ON   119
    udSe_10                 2.898071e-02    1  ON   120
    udSe_11                 3.090417e-02    1  ON   121
    udSe_12                -2.405316e-02    1  ON   122
    udSe_13                 9.709474e-02    1  ON   123
    udSe_14                 1.337148e-02    1  ON   124
    udSe_15                -3.593112e-02    1  ON   125
    udSe_16                -4.041069e-02    1  ON   126
    udSe_17                 1.935563e-02    1  ON   127
    udSe_18                 5.835981e-02    1  ON   128
    udSe_19                 3.017250e-02    1  ON   129
    udSe_20                -9.958939e-02    1  ON   130
    udSe_21                 4.934896e-02    1  ON   131
    udSe_22                 3.427132e-02    1  ON   132
    udSe_23                -1.482271e-01    1  ON   133
    udSe_24                -4.000582e-02    1  ON   134
    udSe_25                -2.469224e-02    1  ON   135

  Updated wavefunction vp file optJ123.s009.vp.h5
  Updated wavefunction xml file optJ123.s009.opt.xml
  QMCLinearOptimizeBatched Execution time = 2.507 secs
  Total Execution time = 24.6 secs

=========================================================
  A new xml input file : optJ123.s009.cont.xml

Use --enable-timers=<value> command line option to increase or decrease level of timing information
Stack timer profile
Timer                       Inclusive_time  Exclusive_time  Calls       Time_per_call
Total                         29.7520     0.0126              1      29.751977772
  QMCLinearOptimizeBatched    24.5866    24.5866             10       2.458658226
  Startup                      5.1528     5.1528              1       5.152844137

QMCPACK execution completed successfully
