
     Program PWSCF v.7.4.1 starts on 16Jul2025 at  0:54:50 
        Git branch: HEAD
        Last git commit: 500de340b820e1cb8c05f2d8bb8fced102f377c1
        Last git commit date: Fri Feb 7 14:59:05 2025 +0000
        Last git commit subject: Merge branch 'qe-7.4.1' into 'master'

     This program is part of the open-source Quantum ESPRESSO suite
     for quantum simulation of materials; please cite
         "P. Giannozzi et al., J. Phys.:Condens. Matter 21 395502 (2009);
         "P. Giannozzi et al., J. Phys.:Condens. Matter 29 465901 (2017);
         "P. Giannozzi et al., J. Chem. Phys. 152 154105 (2020);
          URL http://www.quantum-espresso.org", 
     in publications or presentations arising from this work. More details at
     http://www.quantum-espresso.org/quote

     Parallel version (MPI & OpenMP), running on    3328 processor cores
     Number of MPI processes:               832
     Threads/MPI process:                     4

     MPI processes distributed on    32 nodes
     975623 MiB available memory on the printing compute node when the environment starts
 
     Reading input from nscf.in

     Current dimensions of program PWSCF are:
     Max number of different atomic species (ntypx) = 10
     Max number of k-points (npk) =  40000
     Max angular momentum in pseudopotentials (lmaxx) =  4
scan_end: No INFO end statement, corrupted file?
scan_end: No INFO end statement, corrupted file?

     IMPORTANT: XC functional enforced from input :
     Exchange-correlation= PBE
                           (   1   4   3   4   0   0   0)
     Any further DFT definition will be discarded
     Please, verify this is what you really want


     Atomic positions and unit cell read from directory:
     pwscf_output/pwscf.save/
 
 
     K-points division:     npool     =       4
     R & G space division:  proc/nbgrp/npool/nimage =     208
     Subspace diagonalization in iterative solution of the eigenvalue problem:
     a serial algorithm will be used

 
     Parallelization info
     --------------------
     sticks:   dense  smooth     PW     G-vecs:    dense   smooth      PW
     Min          32      32      8                10576    10576    1452
     Max          33      33      9                10631    10631    1519
     Sum        6813    6813   1843              2206181  2206181  310671
 
     Using Slab Decomposition
 


     bravais-lattice index     =            0
     lattice parameter (alat)  =       8.3200  a.u.
     unit-cell volume          =    2493.7967 (a.u.)^3
     number of atoms/cell      =            4
     number of atomic types    =            2
     number of electrons       =        20.00
     number of Kohn-Sham states=           14
     kinetic-energy cutoff     =     350.0000  Ry
     charge density cutoff     =    1400.0000  Ry
     Exchange-correlation= PBE
                           (   1   4   3   4   0   0   0)

     celldm(1)=   8.320001  celldm(2)=   0.000000  celldm(3)=   0.000000
     celldm(4)=   0.000000  celldm(5)=   0.000000  celldm(6)=   0.000000

     crystal axes: (cart. coord. in units of alat)
               a(1) = (   1.000000   0.000000   0.000000 )  
               a(2) = (   0.000000   0.883413   0.000000 )  
               a(3) = (   0.000000   0.000000   4.901477 )  

     reciprocal axes: (cart. coord. in units 2 pi/alat)
               b(1) = (  1.000000  0.000000  0.000000 )  
               b(2) = (  0.000000  1.131973  0.000000 )  
               b(3) = (  0.000000  0.000000  0.204020 )  


     PseudoPot. # 1 for Ge read from file:
     ./Ge.ccECP.upf
     MD5 check sum: adc484e85c05e28535f307d63fefdf4c
     Pseudo is Norm-conserving, Zval =  4.0
     Generated by new atomic code, or converted to UPF format
     Using radial grid of 1165 points,  2 beta functions with: 
                l(1) =   0
                l(2) =   2

     PseudoPot. # 2 for Se read from file:
     ./Se.ccECP.upf
     MD5 check sum: ed96248b8b63a926de99498f0ddda5f0
     Pseudo is Norm-conserving, Zval =  6.0
     Generated by new atomic code, or converted to UPF format
     Using radial grid of 1167 points,  2 beta functions with: 
                l(1) =   1
                l(2) =   2

     atomic species   valence    mass     pseudopotential
     Ge                4.00    72.61000     Ge( 1.00)
     Se                6.00    78.96000     Se( 1.00)

     Starting magnetic structure 
     atomic species   magnetization
     Ge              0.200
     Se              0.000

     No symmetry found



   Cartesian axes

     site n.     atom                  positions (alat units)
         1        Ge     tau(   1) = (   0.4000000   0.2208534   2.7472777  )
         2        Ge     tau(   2) = (   0.9000000   0.6625601   2.1541990  )
         3        Se     tau(   3) = (   0.5000000   0.2208534   2.1899798  )
         4        Se     tau(   4) = (   0.0000000   0.6625601   2.7114970  )

     number of k points=     9  Fermi-Dirac smearing, width (Ry)=  0.0010
                       cart. coord. in units 2pi/alat
        k(    1) = (   0.0000000   0.0000000   0.0000000), wk =   0.1111111
        k(    2) = (   0.3333333   0.0000000   0.0000000), wk =   0.1111111
        k(    3) = (   0.6666667   0.0000000   0.0000000), wk =   0.1111111
        k(    4) = (   0.0000000   0.3773243   0.0000000), wk =   0.1111111
        k(    5) = (   0.3333333   0.3773243   0.0000000), wk =   0.1111111
        k(    6) = (   0.6666667   0.3773243   0.0000000), wk =   0.1111111
        k(    7) = (   0.0000000   0.7546485   0.0000000), wk =   0.1111111
        k(    8) = (   0.3333333   0.7546485   0.0000000), wk =   0.1111111
        k(    9) = (   0.6666667   0.7546485   0.0000000), wk =   0.1111111

     Dense  grid:  2206181 G-vectors     FFT dimensions: ( 100,  90, 486)

     Estimated max dynamical RAM per process >      33.66 MB

     Estimated total dynamical RAM >       6.35 GB
     Generating pointlists ...
     new r_m :   0.2336 (alat units)  1.9432 (a.u.) for type    1
     new r_m :   0.2336 (alat units)  1.9432 (a.u.) for type    2

     The potential is recalculated from file :
     pwscf_output/pwscf.save/charge-density

     Starting wfcs are   36 randomized atomic wfcs

     Band Structure Calculation
     Davidson diagonalization with overlap

     ethr =  5.00E-09,  avg # of iterations = 66.9

     total cpu time spent up to now is       14.5 secs

     End of band structure calculation

 ------ SPIN UP ------------


          k = 0.0000 0.0000 0.0000 (275653 PWs)   bands (ev):

   -16.1035 -14.5050  -9.5087  -7.2439  -6.1206  -5.6279  -5.1232  -3.7292
    -3.5643  -2.2172  -0.5262   0.7316   1.2941   1.9218

          k = 0.3333 0.0000 0.0000 (275722 PWs)   bands (ev):

   -15.6190 -14.7359 -10.0802  -9.0212  -5.3279  -4.5353  -4.3450  -3.5970
    -3.1131  -2.0934  -0.4692   0.2861   0.6590   0.9187

          k = 0.6667 0.0000 0.0000 (275722 PWs)   bands (ev):

   -15.6190 -14.7359 -10.0802  -9.0212  -5.3279  -4.5353  -4.3450  -3.5970
    -3.1131  -2.0934  -0.4692   0.2861   0.6590   0.9187

          k = 0.0000 0.3773 0.0000 (275888 PWs)   bands (ev):

   -15.4231 -14.4342 -10.1701  -8.9511  -5.4838  -5.2876  -4.6790  -3.9002
    -2.9393  -2.8684  -0.6608   0.2146   0.3048   0.8177

          k = 0.3333 0.3773 0.0000 (275750 PWs)   bands (ev):

   -15.0632 -14.5290  -9.8332  -9.1816  -6.8323  -5.7500  -5.3038  -4.2912
    -3.8653  -2.9461   0.2749   1.1787   1.9043   2.2655

          k = 0.6667 0.3773 0.0000 (275750 PWs)   bands (ev):

   -15.0632 -14.5290  -9.8332  -9.1816  -6.8323  -5.7500  -5.3038  -4.2912
    -3.8653  -2.9461   0.2749   1.1787   1.9043   2.2655

          k = 0.0000 0.7546 0.0000 (275888 PWs)   bands (ev):

   -15.4231 -14.4342 -10.1701  -8.9511  -5.4838  -5.2876  -4.6790  -3.9002
    -2.9393  -2.8684  -0.6608   0.2146   0.3048   0.8177

          k = 0.3333 0.7546 0.0000 (275750 PWs)   bands (ev):

   -15.0632 -14.5290  -9.8332  -9.1816  -6.8323  -5.7500  -5.3038  -4.2912
    -3.8653  -2.9461   0.2749   1.1787   1.9043   2.2655

          k = 0.6667 0.7546 0.0000 (275750 PWs)   bands (ev):

   -15.0632 -14.5290  -9.8332  -9.1816  -6.8323  -5.7500  -5.3038  -4.2912
    -3.8653  -2.9461   0.2749   1.1787   1.9043   2.2655

 ------ SPIN DOWN ----------


          k = 0.0000 0.0000 0.0000 (275653 PWs)   bands (ev):

   -16.1049 -14.5079  -9.5057  -7.2428  -6.1205  -5.6284  -5.1239  -3.7305
    -3.5659  -2.2190  -0.5244   0.7331   1.2964   1.9239

          k = 0.3333 0.0000 0.0000 (275722 PWs)   bands (ev):

   -15.6208 -14.7387 -10.0778  -9.0199  -5.3283  -4.5363  -4.3460  -3.5987
    -3.1129  -2.0949  -0.4664   0.2872   0.6611   0.9198

          k = 0.6667 0.0000 0.0000 (275722 PWs)   bands (ev):

   -15.6208 -14.7387 -10.0778  -9.0199  -5.3283  -4.5363  -4.3460  -3.5987
    -3.1129  -2.0949  -0.4664   0.2872   0.6611   0.9198

          k = 0.0000 0.3773 0.0000 (275888 PWs)   bands (ev):

   -15.4250 -14.4374 -10.1672  -8.9495  -5.4844  -5.2885  -4.6794  -3.9017
    -2.9397  -2.8688  -0.6592   0.2165   0.3060   0.8182

          k = 0.3333 0.3773 0.0000 (275750 PWs)   bands (ev):

   -15.0654 -14.5320  -9.8304  -9.1796  -6.8325  -5.7503  -5.3043  -4.2922
    -3.8656  -2.9467   0.2763   1.1799   1.9051   2.2660

          k = 0.6667 0.3773 0.0000 (275750 PWs)   bands (ev):

   -15.0654 -14.5320  -9.8304  -9.1796  -6.8325  -5.7503  -5.3043  -4.2922
    -3.8656  -2.9467   0.2763   1.1799   1.9051   2.2660

          k = 0.0000 0.7546 0.0000 (275888 PWs)   bands (ev):

   -15.4250 -14.4374 -10.1672  -8.9495  -5.4844  -5.2885  -4.6794  -3.9017
    -2.9397  -2.8688  -0.6592   0.2165   0.3060   0.8182

          k = 0.3333 0.7546 0.0000 (275750 PWs)   bands (ev):

   -15.0654 -14.5320  -9.8304  -9.1796  -6.8325  -5.7503  -5.3043  -4.2922
    -3.8656  -2.9467   0.2763   1.1799   1.9051   2.2660

          k = 0.6667 0.7546 0.0000 (275750 PWs)   bands (ev):

   -15.0654 -14.5320  -9.8304  -9.1796  -6.8325  -5.7503  -5.3043  -4.2922
    -3.8656  -2.9467   0.2763   1.1799   1.9051   2.2660

     the Fermi energy is    -1.0935 ev
     (compare with:    -1.2202 eV, computed in scf)

     Writing all to output data dir pwscf_output/pwscf.save/ :
     XML data file, pseudopotentials, collected wavefunctions
 
     init_run     :      2.10s CPU      1.10s WALL (       1 calls)
     electrons    :     47.93s CPU     12.30s WALL (       1 calls)

     Called by init_run:
     wfcinit      :      0.09s CPU      0.03s WALL (       1 calls)
     potinit      :      0.92s CPU      0.34s WALL (       1 calls)
     hinit0       :      0.54s CPU      0.16s WALL (       1 calls)

     Called by electrons:
     c_bands      :     47.92s CPU     12.30s WALL (       1 calls)
     v_of_rho     :      0.21s CPU      0.05s WALL (       1 calls)

     Called by c_bands:
     init_us_2    :      0.01s CPU      0.00s WALL (       5 calls)
     cegterg      :     44.73s CPU     11.45s WALL (      17 calls)

     Called by *egterg:
     cdiaghg      :      0.46s CPU      0.12s WALL (     294 calls)
     h_psi        :     43.19s CPU     11.06s WALL (     311 calls)
     g_psi        :      0.01s CPU      0.00s WALL (     289 calls)

     Called by h_psi:
     h_psi:calbec :      0.87s CPU      0.22s WALL (     311 calls)
     vloc_psi     :     42.25s CPU     10.81s WALL (     311 calls)
     add_vuspsi   :      0.06s CPU      0.02s WALL (     311 calls)

     General routines
     calbec       :      0.87s CPU      0.22s WALL (     311 calls)
     fft          :      0.54s CPU      0.14s WALL (      18 calls)
     fftw         :     41.44s CPU     10.58s WALL (    5252 calls)
     davcio       :      0.02s CPU      0.00s WALL (      10 calls)
 
     Parallel routines
 
     PWSCF        :     55.35s CPU     16.21s WALL

 
   This run was terminated on:   0:55: 6  16Jul2025            

=------------------------------------------------------------------------------=
   JOB DONE.
=------------------------------------------------------------------------------=
