  Input file(s): qmc.in.xml 
================================================================
                        QMCPACK 4.1.0

          (c) Copyright 2003-2025 QMCPACK developers

                         Please cite:
      J. Kim et al. J. Phys. Cond. Mat. 30 195901 (2018)
           https://doi.org/10.1088/1361-648X/aab9c3
                             and
       P. Kent et al. J. Chem. Phys. 152 174105 (2020)
              https://doi.org/10.1063/5.0004860

  Git branch: HEAD
  Last git commit: c32123a5233186b177d75b800b86f1ad3b1a1413
  Last git commit date: Wed Apr 30 13:56:36 2025 -0400
  Last git commit subject: Merge pull request #5482 from QMCPACK/rc_410
================================================================
  Global options 

  Total number of MPI ranks = 384
  Number of MPI groups      = 1
  MPI group ID              = 0
  Number of ranks in group  = 384
  MPI ranks per node        = 12
  Accelerators per node     = 1
  OMP 1st level threads     = 8
  OMP nested threading disabled or only 1 thread on the 2nd level

  Precision used in this calculation, see definitions in the manual:
  Base precision      = double
  Full precision      = double

  OpenMP target offload to accelerators build option is enabled
  SYCL acceleration build option is enabled
  Real build. QMC_COMPLEX=OFF
  Timer build option is enabled. Current timer level is coarse

=================================================
--- Memory usage report : when QMCPACK starts ---
=================================================
Available memory on node 0, free + buffers : 1083330 MiB
Memory footprint by rank 0 on node 0       :     491 MiB
Device memory allocated via OpenMP offload :       0 MiB
Device memory allocated via SYCL allocator :       0 MiB
Free memory on the default device          :   64923 MiB
=================================================

  Input XML = qmc.in.xml

  Project = qmc
  date    = 2025-07-16 03:08:16 UTC
  host    = x4502c4s4b0n0

  hamiltonian has MPC. Will read density if it is found.


 Random Number
 -------------
  Offset for the random number seeds based on time: 928

  Range of prime numbers to use as seeds over processors and threads = 7297-37847


 Lattice
 -------
  Simulation cell radius   = 11.025001 bohr
  Wigner-Seitz cell radius = 11.025001 bohr

  Overwriting global supercell 
  Long-range breakup parameters:
    rc*kc = 15.000000; rc = 11.025001; kc = 1.360544; tol = 0.000300
  Long-range breakup parameters:
    rc*kc = 15.000000; rc = 11.025001; kc = 1.360544; tol = 0.000300
  KContainer initialised with cutoff 1.360544
   # of K-shell  = 168
   # of K points = 946

  Lattice (bohr):     24.9600019200                 0                 0
                                  0     22.0500016800                 0
                                  0                 0     40.7802899500

  Boundary Conditions:  p  p  p 

  Volume (bohr^3) = 22444.1700557078

  Reciprocal vectors without 2*pi.
    g_1 =       0.0400640995                 0                 0
    g_2 =                  0      0.0453514705                 0
    g_3 =                  0                 0      0.0245216501

  Metric tensor in real-space.
    h_1 = 623.0016958464 0.0000000000 0.0000000000 
    h_2 = 0.0000000000 486.2025740880 0.0000000000 
    h_3 = 0.0000000000 0.0000000000 1663.0320484061 

  Metric tensor in g-space.
    h_1 = 0.0633680741 0.0000000000 0.0000000000 
    h_2 = 0.0000000000 0.0811974673 0.0000000000 
    h_3 = 0.0000000000 0.0000000000 0.0237388195 

 Particle Set
 ------------
  Name: e   Offload : yes

  All the species have the same mass 1.0000000000

  Creating Structure Factor for periodic systems 1.3605441140
  Particle set size: 180   Groups : 2


 Particle Set
 ------------
  Name: ion0   Offload : yes

  Distinctive masses for each species 

  Creating Structure Factor for periodic systems 1.3605441140
  Particle set size: 36   Groups : 2


 Many-body wavefunction
 -------------------
  Name: psi0   Tasking: no

QMCPACK WARNING !!!!!!! Deprecated input style: creating SPO set inside determinantset. Support for this usage will soon be removed. SPO sets should be built outside using sposet_collection.
  Created SPOSet builder named 'einspline' of type einspline
QMCPACK WARNING !!!!!!! Deprecated input style: creating SPO set inside slaterdeterminant and nested determinant tags. Support for this usage will soon be removed. SPO sets should be built outside using sposet_collection.
      Create a new SPOSet updet

     Single particle orbitals (SPO)
     ------------------------------
      Name: updet   Type: spline   Builder class name: EinsplineSetBuilder

  TileMatrix = 
 [  3  0  0
    0  3  0
    0  0  1 ]
  Reading 90 orbitals from HDF5 file.
  HDF5 orbital file version 2.1.0
  Reading orbital file in ESHDF format.
  ESHDF orbital file version 2.1.0
  Lattice = 
    [  8.320001  0.000000  0.000000
       0.000000  7.350001  0.000000
       0.000000  0.000000 40.780290 ]
  SuperLattice = 
    [ 24.960002  0.000000  0.000000
       0.000000 22.050002  0.000000
       0.000000  0.000000 40.780290 ]

bands=14, elecs=180, spins=2, twists=9
Atom type(0) = 32
Atom type(1) = 32
Atom type(2) = 34
Atom type(3) = 34
  Read 2206181 density G-vectors.
  EinsplineSetBuilder found density in the HDF5 file.
  EinsplineSetBuilder found density in the HDF5 file.
  Read 0 VHXC G-vectors.
TIMER  EinsplineSetBuilder::ReadOrbitalInfo 0.3384079430
TIMER  EinsplineSetBuilder::BroadcastOrbitalInfo 0.0715281780
Found 1 distinct supercell twist based on 9 primitive cell k-points
Super twist #0:  [   0.00000   0.00000   0.00000 ]
QMCPACK WARNING twist attribute does't exist but twistnum attribute was found. This is potentially ambiguous. Specifying twist attribute is preferred.
  Using supercell twist 0:  [   0.00000   0.00000   0.00000]
Using 1 copies of twist angle [ 0.000,  0.000,  0.000]
Using 2 copies of twist angle [ 0.667,  0.000,  0.000]
Using 2 copies of twist angle [ 0.000,  0.667,  0.000]
Using 2 copies of twist angle [ 0.333,  0.667,  0.000]
Using 2 copies of twist angle [ 0.667,  0.667,  0.000]
Using complex splines.
70 complex-valued orbitals supplied by h5 can be expanded up to 126 SPOs.
Sorting the bands now:
  Occupying bands based on energy in mode "excited"
We will read 50 distinct complex-valued orbitals from h5.
    Using real valued spline SPOs with complex single precision storage (C2R).
    Running OpenMP offload code path.
    Running OpenMP offload code path.
BandInfoGroup::selectBands bigspace has 70 distinct orbitals 
BandInfoGroup::selectBands using distinct orbitals [0,50)
  Number of distinct bands 50
  First Band index 0
  First SPO index 0
  Size of SPOs 90
  ClassName = SplineC2ROMPTarget
  Using complex einspline table
NumDistinctOrbitals 50 numOrbs = 90
B-spline mesh factor is 1.0000000000
B-spline mesh size is (100, 88, 486)
Maxmimum number of Gvecs 287797
MEMORY 1958 MB allocated for the coefficients in 3D spline orbital representation
Start transforming plane waves to 3D B-Splines.
  Time to gather the table = 6.2405713230
  SplineSetReader initialize_spline_pio 7.0956643290 sec
  Time to bcast the table = 0.8307608750
Time spent in creating B-spline SPOs 8.8944957760 sec
QMCPACK WARNING !!!!!!! Deprecated input style: creating SPO set inside slaterdeterminant and nested determinant tags. Support for this usage will soon be removed. SPO sets should be built outside using sposet_collection.
      Create a new SPOSet downdet

     Single particle orbitals (SPO)
     ------------------------------
      Name: downdet   Type: spline   Builder class name: EinsplineSetBuilder

70 complex-valued orbitals supplied by h5 can be expanded up to 126 SPOs.
Sorting the bands now:
  Occupying bands based on energy in mode "ground"
We will read 50 distinct complex-valued orbitals from h5.
    Running OpenMP offload code path.
BandInfoGroup::selectBands bigspace has 70 distinct orbitals 
BandInfoGroup::selectBands using distinct orbitals [0,50)
  Number of distinct bands 50
  First Band index 0
  First SPO index 0
  Size of SPOs 90
  ClassName = SplineC2ROMPTarget
  Using complex einspline table
NumDistinctOrbitals 50 numOrbs = 90
B-spline mesh factor is 1.0000000000
B-spline mesh size is (100, 88, 486)
Maxmimum number of Gvecs 287797
MEMORY 1958 MB allocated for the coefficients in 3D spline orbital representation
Start transforming plane waves to 3D B-Splines.
  Time to gather the table = 6.2032935170
  SplineSetReader initialize_spline_pio 6.6389707640 sec
  Time to bcast the table = 0.8425274920
Time spent in creating B-spline SPOs 8.0347199650 sec

   Single Slater determinant
   -------------------------

     Determinant
     -----------
      Name: updet   Spin group: 0   SPO name: updet

      Setting delay_rank to default value 1
      Using rank-1 Sherman-Morrison Fahy update (SM1)
      Using walker batching.
      Running on a GPU via SYCL acceleration and OpenMP offload.


     Determinant
     -----------
      Name: downdet   Spin group: 1   SPO name: downdet

      Setting delay_rank to default value 1
      Using rank-1 Sherman-Morrison Fahy update (SM1)
      Using walker batching.
      Running on a GPU via SYCL acceleration and OpenMP offload.

  Added a fermionic WaveFunctionComponent SlaterDet

   Jastrow
   -------
    Name: J1   Type: One-Body   Function: bspline

    Running OpenMP offload code path.
    Radial function for element: Se - e
     Number of parameters: 23
     Cusp: 0.0000000000
     Cutoff radius: 11.0250008400

       Name                        Value Type Use Index
     ------ ---------------------------- ---- --- -----
      eSe_0                -1.976195e+00    1  ON     0
      eSe_1                -2.029965e+00    1  ON     1
      eSe_2                -2.000132e+00    1  ON     2
      eSe_3                -1.944403e+00    1  ON     3
      eSe_4                -1.801556e+00    1  ON     4
      eSe_5                -1.593650e+00    1  ON     5
      eSe_6                -1.354012e+00    1  ON     6
      eSe_7                -1.112833e+00    1  ON     7
      eSe_8                -8.878258e-01    1  ON     8
      eSe_9                -6.918054e-01    1  ON     9
     eSe_10                -5.322492e-01    1  ON    10
     eSe_11                -4.076098e-01    1  ON    11
     eSe_12                -3.199521e-01    1  ON    12
     eSe_13                -2.480831e-01    1  ON    13
     eSe_14                -1.871139e-01    1  ON    14
     eSe_15                -1.373339e-01    1  ON    15
     eSe_16                -9.722261e-02    1  ON    16
     eSe_17                -6.654735e-02    1  ON    17
     eSe_18                -4.376645e-02    1  ON    18
     eSe_19                -2.661813e-02    1  ON    19
     eSe_20                -1.471930e-02    1  ON    20
     eSe_21                -6.846930e-03    1  ON    21
     eSe_22                -2.494270e-03    1  ON    22

    Radial function for element: Ge - e
     Number of parameters: 23
     Cusp: 0
     Cutoff radius: 11.025

       Name                        Value Type Use Index
     ------ ---------------------------- ---- --- -----
      eGe_0                -1.461321e+00    1  ON     0
      eGe_1                -1.534275e+00    1  ON     1
      eGe_2                -1.519328e+00    1  ON     2
      eGe_3                -1.479136e+00    1  ON     3
      eGe_4                -1.393903e+00    1  ON     4
      eGe_5                -1.271269e+00    1  ON     5
      eGe_6                -1.129337e+00    1  ON     6
      eGe_7                -9.776618e-01    1  ON     7
      eGe_8                -8.298510e-01    1  ON     8
      eGe_9                -6.966274e-01    1  ON     9
     eGe_10                -5.820240e-01    1  ON    10
     eGe_11                -4.829149e-01    1  ON    11
     eGe_12                -3.902954e-01    1  ON    12
     eGe_13                -3.082296e-01    1  ON    13
     eGe_14                -2.364411e-01    1  ON    14
     eGe_15                -1.760979e-01    1  ON    15
     eGe_16                -1.264379e-01    1  ON    16
     eGe_17                -8.760354e-02    1  ON    17
     eGe_18                -5.744733e-02    1  ON    18
     eGe_19                -3.473997e-02    1  ON    19
     eGe_20                -1.862225e-02    1  ON    20
     eGe_21                -8.619933e-03    1  ON    21
     eGe_22                -3.296239e-03    1  ON    22


   Jastrow
   -------
    Name: J2   Type: Two-Body   Function: bspline

    Running OpenMP offload code path.
    Radial function for species: u - u
     Number of parameters: 23
     Cusp: -0.25
     Cutoff radius: 11.025

      Name                        Value Type Use Index
     ----- ---------------------------- ---- --- -----
      uu_0                 6.344205e-01    1  ON     0
      uu_1                 5.297660e-01    1  ON     1
      uu_2                 4.413080e-01    1  ON     2
      uu_3                 3.687122e-01    1  ON     3
      uu_4                 3.082864e-01    1  ON     4
      uu_5                 2.570920e-01    1  ON     5
      uu_6                 2.140606e-01    1  ON     6
      uu_7                 1.783952e-01    1  ON     7
      uu_8                 1.491800e-01    1  ON     8
      uu_9                 1.251649e-01    1  ON     9
     uu_10                 1.047993e-01    1  ON    10
     uu_11                 8.761922e-02    1  ON    11
     uu_12                 7.288456e-02    1  ON    12
     uu_13                 6.008449e-02    1  ON    13
     uu_14                 4.896729e-02    1  ON    14
     uu_15                 3.926873e-02    1  ON    15
     uu_16                 3.081558e-02    1  ON    16
     uu_17                 2.352387e-02    1  ON    17
     uu_18                 1.733283e-02    1  ON    18
     uu_19                 1.214401e-02    1  ON    19
     uu_20                 7.980941e-03    1  ON    20
     uu_21                 4.525444e-03    1  ON    21
     uu_22                 2.302472e-03    1  ON    22

    Radial function for species: u - d
     Number of parameters: 23
     Cusp: -0.5
     Cutoff radius: 11.025

      Name                        Value Type Use Index
     ----- ---------------------------- ---- --- -----
      ud_0                 9.886008e-01    1  ON     0
      ud_1                 7.812746e-01    1  ON     1
      ud_2                 6.174429e-01    1  ON     2
      ud_3                 4.893013e-01    1  ON     3
      ud_4                 3.878644e-01    1  ON     4
      ud_5                 3.071765e-01    1  ON     5
      ud_6                 2.447998e-01    1  ON     6
      ud_7                 1.981853e-01    1  ON     7
      ud_8                 1.631341e-01    1  ON     8
      ud_9                 1.358646e-01    1  ON     9
     ud_10                 1.136409e-01    1  ON    10
     ud_11                 9.492339e-02    1  ON    11
     ud_12                 7.878948e-02    1  ON    12
     ud_13                 6.477530e-02    1  ON    13
     ud_14                 5.269479e-02    1  ON    14
     ud_15                 4.217522e-02    1  ON    15
     ud_16                 3.310444e-02    1  ON    16
     ud_17                 2.525241e-02    1  ON    17
     ud_18                 1.860237e-02    1  ON    18
     ud_19                 1.300936e-02    1  ON    19
     ud_20                 8.561433e-03    1  ON    20
     ud_21                 4.905322e-03    1  ON    21
     ud_22                 2.511250e-03    1  ON    22


   Jastrow
   -------
    Name: J3   Type: eeI   Function: polynomial

     Ion: Ge   electron-electron: u - u
      Number of parameters for e-e: 3, for e-I: 3
      Cutoff radius: 11.025

         Name                        Value Type Use Index
      ------- ---------------------------- ---- --- -----
       uuGe_0                -2.481198e-06    1  ON     0
       uuGe_1                 9.001841e-06    1  ON     1
       uuGe_2                 4.360454e-06    1  ON     2
       uuGe_3                 9.837905e-06    1  ON     3
       uuGe_4                 3.594292e-07    1  ON     4
       uuGe_5                -4.527950e-07    1  ON     5
       uuGe_6                 1.816034e-05    1  ON     6
       uuGe_7                 1.015595e-05    1  ON     7
       uuGe_8                -1.238555e-06    1  ON     8
       uuGe_9                -1.508575e-05    1  ON     9
      uuGe_10                 4.468376e-06    1  ON    10
      uuGe_11                -7.239267e-06    1  ON    11
      uuGe_12                 8.910406e-07    1  ON    12
      uuGe_13                -1.291902e-05    1  ON    13
      uuGe_14                -7.567093e-07    1  ON    14
      uuGe_15                -1.107259e-08    1  ON    15
      uuGe_16                 2.746663e-05    1  ON    16
      uuGe_17                -1.579804e-05    1  ON    17
      uuGe_18                 6.078196e-06    1  ON    18
      uuGe_19                -6.388308e-07    1  ON    19
      uuGe_20                 3.150677e-07    1  ON    20
      uuGe_21                -3.846624e-07    1  ON    21
      uuGe_22                 5.971340e-08    1  ON    22
      uuGe_23                -1.447721e-07    1  ON    23
      uuGe_24                 5.572895e-08    1  ON    24
      uuGe_25                -9.185655e-09    1  ON    25

     Ion: Ge   electron-electron: u - d
      Number of parameters for e-e: 3, for e-I: 3
      Cutoff radius: 11.025

         Name                        Value Type Use Index
      ------- ---------------------------- ---- --- -----
       udGe_0                -2.147880e-05    1  ON     0
       udGe_1                 1.214721e-05    1  ON     1
       udGe_2                 2.542171e-05    1  ON     2
       udGe_3                 3.810426e-05    1  ON     3
       udGe_4                 1.596589e-06    1  ON     4
       udGe_5                -2.069931e-06    1  ON     5
       udGe_6                 6.591871e-05    1  ON     6
       udGe_7                 1.786104e-05    1  ON     7
       udGe_8                -1.180190e-06    1  ON     8
       udGe_9                -3.953931e-05    1  ON     9
      udGe_10                 1.989598e-05    1  ON    10
      udGe_11                -2.162656e-05    1  ON    11
      udGe_12                 2.737693e-06    1  ON    12
      udGe_13                -3.914551e-05    1  ON    13
      udGe_14                -3.042952e-06    1  ON    14
      udGe_15                 1.971486e-08    1  ON    15
      udGe_16                 7.284760e-05    1  ON    16
      udGe_17                -4.885952e-05    1  ON    17
      udGe_18                 1.723894e-05    1  ON    18
      udGe_19                -1.855958e-06    1  ON    19
      udGe_20                 1.389265e-06    1  ON    20
      udGe_21                -7.580559e-07    1  ON    21
      udGe_22                 1.284763e-07    1  ON    22
      udGe_23                -4.391399e-07    1  ON    23
      udGe_24                 8.979471e-08    1  ON    24
      udGe_25                -1.428197e-08    1  ON    25

     Ion: Se   electron-electron: u - u
      Number of parameters for e-e: 3, for e-I: 3
      Cutoff radius: 11.025

         Name                        Value Type Use Index
      ------- ---------------------------- ---- --- -----
       uuSe_0                -5.229444e-06    1  ON     0
       uuSe_1                 1.575130e-05    1  ON     1
       uuSe_2                 7.879903e-06    1  ON     2
       uuSe_3                 9.843353e-06    1  ON     3
       uuSe_4                 1.955051e-07    1  ON     4
       uuSe_5                -8.486938e-07    1  ON     5
       uuSe_6                 3.313281e-05    1  ON     6
       uuSe_7                 4.339207e-06    1  ON     7
       uuSe_8                -5.057536e-07    1  ON     8
       uuSe_9                -2.151453e-05    1  ON     9
      uuSe_10                 3.907668e-06    1  ON    10
      uuSe_11                -5.247887e-06    1  ON    11
      uuSe_12                 8.971924e-07    1  ON    12
      uuSe_13                -1.164540e-05    1  ON    13
      uuSe_14                -1.104992e-06    1  ON    14
      uuSe_15                 8.364796e-09    1  ON    15
      uuSe_16                 3.004847e-05    1  ON    16
      uuSe_17                -1.453269e-05    1  ON    17
      uuSe_18                 3.909396e-06    1  ON    18
      uuSe_19                -5.539875e-07    1  ON    19
      uuSe_20                 4.321108e-08    1  ON    20
      uuSe_21                -2.445214e-08    1  ON    21
      uuSe_22                 3.191765e-08    1  ON    22
      uuSe_23                -4.488393e-08    1  ON    23
      uuSe_24                -6.023807e-09    1  ON    24
      uuSe_25                -2.948486e-09    1  ON    25

     Ion: Se   electron-electron: u - d
      Number of parameters for e-e: 3, for e-I: 3
      Cutoff radius: 11.025

         Name                        Value Type Use Index
      ------- ---------------------------- ---- --- -----
       udSe_0                -1.820975e-05    1  ON     0
       udSe_1                 2.523020e-05    1  ON     1
       udSe_2                 2.870925e-05    1  ON     2
       udSe_3                 2.595276e-05    1  ON     3
       udSe_4                 3.218014e-07    1  ON     4
       udSe_5                -2.401200e-06    1  ON     5
       udSe_6                 7.867133e-05    1  ON     6
       udSe_7                 6.542324e-06    1  ON     7
       udSe_8                 3.469798e-06    1  ON     8
       udSe_9                -4.900441e-05    1  ON     9
      udSe_10                 1.405762e-05    1  ON    10
      udSe_11                -1.747420e-05    1  ON    11
      udSe_12                 1.759886e-06    1  ON    12
      udSe_13                -2.473894e-05    1  ON    13
      udSe_14                -2.663180e-06    1  ON    14
      udSe_15                 6.528935e-08    1  ON    15
      udSe_16                 7.053912e-05    1  ON    16
      udSe_17                -3.711978e-05    1  ON    17
      udSe_18                 1.248577e-05    1  ON    18
      udSe_19                -1.449047e-06    1  ON    19
      udSe_20                -2.461562e-06    1  ON    20
      udSe_21                -1.194479e-07    1  ON    21
      udSe_22                 6.341308e-08    1  ON    22
      udSe_23                 4.937708e-07    1  ON    23
      udSe_24                -5.689527e-08    1  ON    24
      udSe_25                 1.903720e-09    1  ON    25

  Wave function psi0 parameters:
       Name                        Value Type Use Index
    ------- ---------------------------- ---- --- -----
      eGe_0                -1.461321e+00    1  ON     0
      eGe_1                -1.534275e+00    1  ON     1
      eGe_2                -1.519328e+00    1  ON     2
      eGe_3                -1.479136e+00    1  ON     3
      eGe_4                -1.393903e+00    1  ON     4
      eGe_5                -1.271269e+00    1  ON     5
      eGe_6                -1.129337e+00    1  ON     6
      eGe_7                -9.776618e-01    1  ON     7
      eGe_8                -8.298510e-01    1  ON     8
      eGe_9                -6.966274e-01    1  ON     9
     eGe_10                -5.820240e-01    1  ON    10
     eGe_11                -4.829149e-01    1  ON    11
     eGe_12                -3.902954e-01    1  ON    12
     eGe_13                -3.082296e-01    1  ON    13
     eGe_14                -2.364411e-01    1  ON    14
     eGe_15                -1.760979e-01    1  ON    15
     eGe_16                -1.264379e-01    1  ON    16
     eGe_17                -8.760354e-02    1  ON    17
     eGe_18                -5.744733e-02    1  ON    18
     eGe_19                -3.473997e-02    1  ON    19
     eGe_20                -1.862225e-02    1  ON    20
     eGe_21                -8.619933e-03    1  ON    21
     eGe_22                -3.296239e-03    1  ON    22
      eSe_0                -1.976195e+00    1  ON    23
      eSe_1                -2.029965e+00    1  ON    24
      eSe_2                -2.000132e+00    1  ON    25
      eSe_3                -1.944403e+00    1  ON    26
      eSe_4                -1.801556e+00    1  ON    27
      eSe_5                -1.593650e+00    1  ON    28
      eSe_6                -1.354012e+00    1  ON    29
      eSe_7                -1.112833e+00    1  ON    30
      eSe_8                -8.878258e-01    1  ON    31
      eSe_9                -6.918054e-01    1  ON    32
     eSe_10                -5.322492e-01    1  ON    33
     eSe_11                -4.076098e-01    1  ON    34
     eSe_12                -3.199521e-01    1  ON    35
     eSe_13                -2.480831e-01    1  ON    36
     eSe_14                -1.871139e-01    1  ON    37
     eSe_15                -1.373339e-01    1  ON    38
     eSe_16                -9.722261e-02    1  ON    39
     eSe_17                -6.654735e-02    1  ON    40
     eSe_18                -4.376645e-02    1  ON    41
     eSe_19                -2.661813e-02    1  ON    42
     eSe_20                -1.471930e-02    1  ON    43
     eSe_21                -6.846930e-03    1  ON    44
     eSe_22                -2.494270e-03    1  ON    45
       uu_0                 6.344205e-01    1  ON    46
       uu_1                 5.297660e-01    1  ON    47
       uu_2                 4.413080e-01    1  ON    48
       uu_3                 3.687122e-01    1  ON    49
       uu_4                 3.082864e-01    1  ON    50
       uu_5                 2.570920e-01    1  ON    51
       uu_6                 2.140606e-01    1  ON    52
       uu_7                 1.783952e-01    1  ON    53
       uu_8                 1.491800e-01    1  ON    54
       uu_9                 1.251649e-01    1  ON    55
      uu_10                 1.047993e-01    1  ON    56
      uu_11                 8.761922e-02    1  ON    57
      uu_12                 7.288456e-02    1  ON    58
      uu_13                 6.008449e-02    1  ON    59
      uu_14                 4.896729e-02    1  ON    60
      uu_15                 3.926873e-02    1  ON    61
      uu_16                 3.081558e-02    1  ON    62
      uu_17                 2.352387e-02    1  ON    63
      uu_18                 1.733283e-02    1  ON    64
      uu_19                 1.214401e-02    1  ON    65
      uu_20                 7.980941e-03    1  ON    66
      uu_21                 4.525444e-03    1  ON    67
      uu_22                 2.302472e-03    1  ON    68
       ud_0                 9.886008e-01    1  ON    69
       ud_1                 7.812746e-01    1  ON    70
       ud_2                 6.174429e-01    1  ON    71
       ud_3                 4.893013e-01    1  ON    72
       ud_4                 3.878644e-01    1  ON    73
       ud_5                 3.071765e-01    1  ON    74
       ud_6                 2.447998e-01    1  ON    75
       ud_7                 1.981853e-01    1  ON    76
       ud_8                 1.631341e-01    1  ON    77
       ud_9                 1.358646e-01    1  ON    78
      ud_10                 1.136409e-01    1  ON    79
      ud_11                 9.492339e-02    1  ON    80
      ud_12                 7.878948e-02    1  ON    81
      ud_13                 6.477530e-02    1  ON    82
      ud_14                 5.269479e-02    1  ON    83
      ud_15                 4.217522e-02    1  ON    84
      ud_16                 3.310444e-02    1  ON    85
      ud_17                 2.525241e-02    1  ON    86
      ud_18                 1.860237e-02    1  ON    87
      ud_19                 1.300936e-02    1  ON    88
      ud_20                 8.561433e-03    1  ON    89
      ud_21                 4.905322e-03    1  ON    90
      ud_22                 2.511250e-03    1  ON    91
     uuGe_0                -2.481198e-06    1  ON    92
     uuGe_1                 9.001841e-06    1  ON    93
     uuGe_2                 4.360454e-06    1  ON    94
     uuGe_3                 9.837905e-06    1  ON    95
     uuGe_4                 3.594292e-07    1  ON    96
     uuGe_5                -4.527950e-07    1  ON    97
     uuGe_6                 1.816034e-05    1  ON    98
     uuGe_7                 1.015595e-05    1  ON    99
     uuGe_8                -1.238555e-06    1  ON   100
     uuGe_9                -1.508575e-05    1  ON   101
    uuGe_10                 4.468376e-06    1  ON   102
    uuGe_11                -7.239267e-06    1  ON   103
    uuGe_12                 8.910406e-07    1  ON   104
    uuGe_13                -1.291902e-05    1  ON   105
    uuGe_14                -7.567093e-07    1  ON   106
    uuGe_15                -1.107259e-08    1  ON   107
    uuGe_16                 2.746663e-05    1  ON   108
    uuGe_17                -1.579804e-05    1  ON   109
    uuGe_18                 6.078196e-06    1  ON   110
    uuGe_19                -6.388308e-07    1  ON   111
    uuGe_20                 3.150677e-07    1  ON   112
    uuGe_21                -3.846624e-07    1  ON   113
    uuGe_22                 5.971340e-08    1  ON   114
    uuGe_23                -1.447721e-07    1  ON   115
    uuGe_24                 5.572895e-08    1  ON   116
    uuGe_25                -9.185655e-09    1  ON   117
     udGe_0                -2.147880e-05    1  ON   118
     udGe_1                 1.214721e-05    1  ON   119
     udGe_2                 2.542171e-05    1  ON   120
     udGe_3                 3.810426e-05    1  ON   121
     udGe_4                 1.596589e-06    1  ON   122
     udGe_5                -2.069931e-06    1  ON   123
     udGe_6                 6.591871e-05    1  ON   124
     udGe_7                 1.786104e-05    1  ON   125
     udGe_8                -1.180190e-06    1  ON   126
     udGe_9                -3.953931e-05    1  ON   127
    udGe_10                 1.989598e-05    1  ON   128
    udGe_11                -2.162656e-05    1  ON   129
    udGe_12                 2.737693e-06    1  ON   130
    udGe_13                -3.914551e-05    1  ON   131
    udGe_14                -3.042952e-06    1  ON   132
    udGe_15                 1.971486e-08    1  ON   133
    udGe_16                 7.284760e-05    1  ON   134
    udGe_17                -4.885952e-05    1  ON   135
    udGe_18                 1.723894e-05    1  ON   136
    udGe_19                -1.855958e-06    1  ON   137
    udGe_20                 1.389265e-06    1  ON   138
    udGe_21                -7.580559e-07    1  ON   139
    udGe_22                 1.284763e-07    1  ON   140
    udGe_23                -4.391399e-07    1  ON   141
    udGe_24                 8.979471e-08    1  ON   142
    udGe_25                -1.428197e-08    1  ON   143
     uuSe_0                -5.229444e-06    1  ON   144
     uuSe_1                 1.575130e-05    1  ON   145
     uuSe_2                 7.879903e-06    1  ON   146
     uuSe_3                 9.843353e-06    1  ON   147
     uuSe_4                 1.955051e-07    1  ON   148
     uuSe_5                -8.486938e-07    1  ON   149
     uuSe_6                 3.313281e-05    1  ON   150
     uuSe_7                 4.339207e-06    1  ON   151
     uuSe_8                -5.057536e-07    1  ON   152
     uuSe_9                -2.151453e-05    1  ON   153
    uuSe_10                 3.907668e-06    1  ON   154
    uuSe_11                -5.247887e-06    1  ON   155
    uuSe_12                 8.971924e-07    1  ON   156
    uuSe_13                -1.164540e-05    1  ON   157
    uuSe_14                -1.104992e-06    1  ON   158
    uuSe_15                 8.364796e-09    1  ON   159
    uuSe_16                 3.004847e-05    1  ON   160
    uuSe_17                -1.453269e-05    1  ON   161
    uuSe_18                 3.909396e-06    1  ON   162
    uuSe_19                -5.539875e-07    1  ON   163
    uuSe_20                 4.321108e-08    1  ON   164
    uuSe_21                -2.445214e-08    1  ON   165
    uuSe_22                 3.191765e-08    1  ON   166
    uuSe_23                -4.488393e-08    1  ON   167
    uuSe_24                -6.023807e-09    1  ON   168
    uuSe_25                -2.948486e-09    1  ON   169
     udSe_0                -1.820975e-05    1  ON   170
     udSe_1                 2.523020e-05    1  ON   171
     udSe_2                 2.870925e-05    1  ON   172
     udSe_3                 2.595276e-05    1  ON   173
     udSe_4                 3.218014e-07    1  ON   174
     udSe_5                -2.401200e-06    1  ON   175
     udSe_6                 7.867133e-05    1  ON   176
     udSe_7                 6.542324e-06    1  ON   177
     udSe_8                 3.469798e-06    1  ON   178
     udSe_9                -4.900441e-05    1  ON   179
    udSe_10                 1.405762e-05    1  ON   180
    udSe_11                -1.747420e-05    1  ON   181
    udSe_12                 1.759886e-06    1  ON   182
    udSe_13                -2.473894e-05    1  ON   183
    udSe_14                -2.663180e-06    1  ON   184
    udSe_15                 6.528935e-08    1  ON   185
    udSe_16                 7.053912e-05    1  ON   186
    udSe_17                -3.711978e-05    1  ON   187
    udSe_18                 1.248577e-05    1  ON   188
    udSe_19                -1.449047e-06    1  ON   189
    udSe_20                -2.461562e-06    1  ON   190
    udSe_21                -1.194479e-07    1  ON   191
    udSe_22                 6.341308e-08    1  ON   192
    udSe_23                 4.937708e-07    1  ON   193
    udSe_24                -5.689527e-08    1  ON   194
    udSe_25                 1.903720e-09    1  ON   195

  Adding psi0 TrialWaveFunction to the pool

 Hamiltonian and observables
 ---------------------------
  Name: h0

  QMCHamiltonian::addOperator Kinetic to H, physical Hamiltonian 

   Pseudo Potential
   ----------------
    Name: PseudoPot   Wavefunction : psi0


  Adding pseudopotential for Ge
   Linear grid  ri=0 rf=10 npts = 10001
    ECPComponentBuilder::buildSemiLocalAndLocal 
QMCPACK WARNING Nrule was not determined from qmcpack input or pseudopotential file. Setting sensible default.
    Assuming Hartree unit
 l-local setting found in pseudopotential file and used.
   Number of angular momentum channels 4
   Maximum angular momentum channel (Lmax) 3
   Creating a Linear Grid Rmax=4.425
  Using global grid with delta = 0.001
   Making L=3 a local potential with a radial cutoff of 9.999
  Quadrature Nrule: 4
    Non-local pseudopotential parameters
    Maximum angular momentum = 2
    Number of non-local channels = 3
       l(0)=0
       l(1)=1
       l(2)=2
    Cutoff radius = 4.425
    Number of spherical integration grid points = 12
    Spherical grid and weights: 
                        1                 0                 0       0.08333333333
                       -1   1.224646799e-16                 0       0.08333333333
             0.4472135955       0.894427191                 0       0.08333333333
            -0.4472135955      0.7236067977      0.5257311121       0.08333333333
             0.4472135955      0.2763932023      0.8506508084       0.08333333333
            -0.4472135955     -0.2763932023      0.8506508084       0.08333333333
             0.4472135955     -0.7236067977      0.5257311121       0.08333333333
            -0.4472135955      -0.894427191   1.095357397e-16       0.08333333333
             0.4472135955     -0.7236067977     -0.5257311121       0.08333333333
            -0.4472135955     -0.2763932023     -0.8506508084       0.08333333333
             0.4472135955      0.2763932023     -0.8506508084       0.08333333333
            -0.4472135955      0.7236067977     -0.5257311121       0.08333333333
    Maximum cutoff radius 4.425

  Adding pseudopotential for Se
   Linear grid  ri=0 rf=10 npts = 10001
    ECPComponentBuilder::buildSemiLocalAndLocal 
QMCPACK WARNING Nrule was not determined from qmcpack input or pseudopotential file. Setting sensible default.
    Assuming Hartree unit
 l-local setting found in pseudopotential file and used.
   Number of angular momentum channels 4
   Maximum angular momentum channel (Lmax) 3
   Creating a Linear Grid Rmax=3.085
  Using global grid with delta = 0.001
   Making L=3 a local potential with a radial cutoff of 9.999
  Quadrature Nrule: 4
    Non-local pseudopotential parameters
    Maximum angular momentum = 2
    Number of non-local channels = 3
       l(0)=0
       l(1)=1
       l(2)=2
    Cutoff radius = 3.085
    Number of spherical integration grid points = 12
    Spherical grid and weights: 
                        1                 0                 0       0.08333333333
                       -1   1.224646799e-16                 0       0.08333333333
             0.4472135955       0.894427191                 0       0.08333333333
            -0.4472135955      0.7236067977      0.5257311121       0.08333333333
             0.4472135955      0.2763932023      0.8506508084       0.08333333333
            -0.4472135955     -0.2763932023      0.8506508084       0.08333333333
             0.4472135955     -0.7236067977      0.5257311121       0.08333333333
            -0.4472135955      -0.894427191   1.095357397e-16       0.08333333333
             0.4472135955     -0.7236067977     -0.5257311121       0.08333333333
            -0.4472135955     -0.2763932023     -0.8506508084       0.08333333333
             0.4472135955      0.2763932023     -0.8506508084       0.08333333333
            -0.4472135955      0.7236067977     -0.5257311121       0.08333333333
    Maximum cutoff radius 3.085

  Creating CoulombHandler with the Esler Optimized Breakup. 
  KContainer initialised with cutoff 6.682412378
   # of K-shell  = 15262
   # of K points = 113124

  NUMBER OF OPT_BREAK KVECS = 61090037470
 finding kc:  1.360544114 , 1.360544114
  LRBreakp parameter Kc =1.360544114
    Continuum approximation in k = [6.682412378,544.2176456)

   LR Breakup chi^2 = 3.75726e-17
   Constant of PBCAB 72.182
    CoulombPBCAB::initBreakup
  Setting a linear grid=[0,11.025) number of grid points =1001
  Rcut                11.025
  Maximum K shell     167
  Number of k vectors 946
    CoulombPBCAB::add 
 Setting a linear grid=[0,11.025) number of grid =10000
    Creating the short-range pseudopotential for species 0
    CoulombPBCAB::add 
 Setting a linear grid=[0,11.025) number of grid =10000
    Creating the short-range pseudopotential for species 1
  QMCHamiltonian::addOperator LocalECP to H, physical Hamiltonian 

  Using NonLocalECP potential 
    Maximum grid on a sphere for NonLocalECPotential: 12
    Using batched ratio computing in NonLocalECP
  QMCHamiltonian::addOperator NonLocalECP to H, physical Hamiltonian 

   Coulomb Potential
   -----------------
    Name: ElecElec   Type: AA   PBC: yes

    Running OpenMP offload code path.
  Clone CoulombHandler. 
   PBCAA self-interaction term -24.811
   PBCAA total constant -60.902
    CoulombPBCAA::initBreakup
  Setting a linear grid=[0,11.025) number of grid points =1001
  Maximum K shell 167
  Number of k vectors 946
  Fixed Coulomb potential for e
    e-e Madelung Const. =-0.044117134
    Vtot     =0
  QMCHamiltonian::addOperator ElecElec to H, physical Hamiltonian 
QMCHamiltonian::addOperatorType added type coulomb named ElecElec

   Coulomb Potential
   -----------------
    Name: IonIon   Type: AA   PBC: yes

    Running OpenMP offload code path.
  Clone CoulombHandler. 
   PBCAA self-interaction term -129.01736
   PBCAA total constant -165.10833
    CoulombPBCAA::initBreakup
  Setting a linear grid=[0,11.025001) number of grid points =1001
Checking ion-ion Ewald energy against reference...
  Check passed.
  Maximum K shell 167
  Number of k vectors 946
  Fixed Coulomb potential for ion0
    e-e Madelung Const. =-0.044117134
    Vtot     =560.92693
  QMCHamiltonian::addOperator IonIon to H, physical Hamiltonian 
QMCHamiltonian::addOperatorType added type coulomb named IonIon

   MPC Potential
   -------------
    Name: MPC   Physical : no


  === Initializing MPC interaction === 
  Using 19567 G-vectors for MPC interaction.
   Using real-space box of size [120,108,200] for MPC spline.
    Linear extrap    = 7.470527664189e-02
    Quadratic extrap = 7.470538740274e-02
    Worst MPC discrepancy:
      Linear Extrap   : 7.47052766418874e-02
      Quadratic Extrap: 7.47053874027395e-02
  Constant potential = 1.207128154130e+03
  === MPC interaction initialized === 

  QMCHamiltonian::addOperator MPC to auxH 
QMCHamiltonian::addOperatorType added type MPC named MPC

  QMCHamiltonian::add2WalkerProperty added
    6 to P::PropertyList 
    0 to P::Collectables 
    starting Index of the observables in P::PropertyList = 9
ParticleSetPool::randomize 1 ParticleSet.
<init source="ion0" target="e">
</init>
  Initialization Execution time = 2.5862e+01 secs
=========================================================
 Summary of QMC systems 
=========================================================
ParticleSetPool has: 

  ParticleSet 'e' contains 180 particles :  u(90) d(90)

    u  3.9380337583e+00  6.0905905423e-01  2.3681240637e+01
    u  3.0079800153e+00  2.4303630218e+00  2.4308593591e+01
    u  6.0392916585e+00  5.0140999548e+00  1.8384282677e+01
    u  9.0167898764e+00  5.2726882454e+00  1.7516374510e+01
    u  1.0048044811e+01  1.8418164506e+00  2.2846312536e+01
    u  1.1967410844e+01  2.9616647426e+00  2.1764543646e+01
    u  1.6239597859e+01  4.6219273034e+00  1.9180158121e+01
    u  1.4216915871e+01  5.5933406227e+00  1.8070965382e+01
    u  2.1362895249e+01  2.5699005416e+00  2.2578316337e+01
    u  2.0683902165e+01  1.5381659345e+00  2.1458107964e+01
    (... and 170 more particle positions ...)

  Distance table for dissimilar particles (A-B):
    source: ion0  target: e
    Using structure-of-arrays (SoA) data layout and OpenMP offload
    Distance computations use orthorhombic periodic cell in 3D.

  Distance table for similar particles (A-A):
    source/target: e
    Using structure-of-arrays (SoA) data layout and OpenMP offload
    Distance computations use orthorhombic periodic cell in 3D.


  ParticleSet 'ion0' contains 36 particles :  Ge(18) Se(18)

    Ge  3.3280002600e+00  1.8375001400e+00  2.2857352520e+01
    Ge  7.4880005800e+00  5.5125004200e+00  1.7922937430e+01
    Ge  1.1648000900e+01  1.8375001400e+00  2.2857352520e+01
    Ge  1.5808001220e+01  5.5125004200e+00  1.7922937430e+01
    Ge  1.9968001540e+01  1.8375001400e+00  2.2857352520e+01
    Ge  2.4128001860e+01  5.5125004200e+00  1.7922937430e+01
    Ge  3.3280002600e+00  9.1875007000e+00  2.2857352520e+01
    Ge  7.4880005800e+00  1.2862500980e+01  1.7922937430e+01
    Ge  1.1648000900e+01  9.1875007000e+00  2.2857352520e+01
    Ge  1.5808001220e+01  1.2862500980e+01  1.7922937430e+01
    (... and 26 more particle positions ...)

  Distance table for similar particles (A-A):
    source/target: ion0
    Using structure-of-arrays (SoA) data layout and OpenMP offload
    Distance computations use orthorhombic periodic cell in 3D.


  Hamiltonian h0
  Kinetic         Kinetic energy
  LocalECP        CoulombPBCAB potential source: ion0
  NonLocalECP     NonLocalECPotential: ion0
  ElecElec        CoulombPBCAA potential: e_e
  IonIon          CoulombPBCAA potential: ion0_ion0


========================================
  Reading VMC driver XML input section
========================================
  Random walking with drift
 Legacy constructor adding a default LocalEnergyEstimator for the MainEstimator 
EstimatorManager setup for this section:
  Main Estimator:  LocalEnergy

=========================================================
  Start VMCBatched
  File Root qmc.s000
=========================================================
==============================================================
--- Memory usage report : VMCBatched before initialization ---
==============================================================
Available memory on node 0, free + buffers : 1034014 MiB
Memory footprint by rank 0 on node 0       :    6571 MiB
Device memory allocated via OpenMP offload :    3917 MiB
Device memory allocated via SYCL allocator :       0 MiB
Free memory on the default device          :   60884 MiB
==============================================================
QMCPACK WARNING Total walkers (2048) is not divisible by number of ranks (384). This will result in a loss of efficiency.
QMCPACK WARNING Walkers per rank (6) not divisible by number of crowds (8). This will result in a loss of efficiency.
QMCPACK WARNING Using 3072 total walkers will divide evenly over both ranks and crowds.
VMCBatched Driver running with
             total_walkers     = 2048
             walkers_per_rank  = [6(x128), 5(x256)]
             num_crowds        = 8
  on rank 0, walkers_per_crowd = [1(x6), 0(x2)]

                         steps = 20
                        blocks = 20

===================================================================
--- Memory usage report : VMCBatched after initialLogEvaluation ---
===================================================================
Available memory on node 0, free + buffers : 1033622 MiB
Memory footprint by rank 0 on node 0       :    6571 MiB
Device memory allocated via OpenMP offload :    3925 MiB
Device memory allocated via SYCL allocator :       0 MiB
Free memory on the default device          :   60821 MiB
===================================================================
=====================================================
--- Memory usage report : VMCBatched after Warmup ---
=====================================================
Available memory on node 0, free + buffers : 1031240 MiB
Memory footprint by rank 0 on node 0       :    6571 MiB
Device memory allocated via OpenMP offload :    3925 MiB
Device memory allocated via SYCL allocator :       0 MiB
Free memory on the default device          :   60790 MiB
=====================================================
VMC Warmup completed in 2.0652e+01 secs
Completed block    1 of 20 average 4.28 secs/block after 55.91 secs
Completed block    5 of 20 average 4.153 secs/block after 72.39 secs
Completed block   10 of 20 average 4.138 secs/block after 93.01 secs
Completed block   15 of 20 average 4.141 secs/block after 113.8 secs
Completed block   20 of 20 average 4.141 secs/block after 134.5 secs
====================================================
  End of a VMC section
    QMC counter        = 0
    time step          = 0.3
    reference energy   = -238.708
    reference variance = 1.38464
====================================================
=============================================
--- Memory usage report : VMCBatched ends ---
=============================================
Available memory on node 0, free + buffers : 1021906 MiB
Memory footprint by rank 0 on node 0       :    6571 MiB
Device memory allocated via OpenMP offload :    3925 MiB
Device memory allocated via SYCL allocator :       0 MiB
Free memory on the default device          :   60790 MiB
=============================================
  Carry over 2048 walker configurations to the next QMC driver.
  VMCBatched Execution time = 1.0435e+02 secs

========================================
  Reading DMC driver XML input section
========================================
  Using Non-local T-moves v3, an approximation to v1
 Legacy constructor adding a default LocalEnergyEstimator for the MainEstimator 
EstimatorManager setup for this section:
  Main Estimator:  LocalEnergy

=========================================================
  Start DMCBatched
  File Root qmc.s001
=========================================================
==============================================================
--- Memory usage report : DMCBatched before initialization ---
==============================================================
Available memory on node 0, free + buffers : 1021376 MiB
Memory footprint by rank 0 on node 0       :    6571 MiB
Device memory allocated via OpenMP offload :    3917 MiB
Device memory allocated via SYCL allocator :       0 MiB
Free memory on the default device          :   60790 MiB
==============================================================
QMCPACK WARNING Total walkers (2048) is not divisible by number of ranks (384). This will result in a loss of efficiency.
QMCPACK WARNING Walkers per rank (6) not divisible by number of crowds (8). This will result in a loss of efficiency.
QMCPACK WARNING Using 3072 total walkers will divide evenly over both ranks and crowds.
DMCBatched Driver running with
             total_walkers     = 2048
             walkers_per_rank  = [6(x128), 5(x256)]
             num_crowds        = 8
  on rank 0, walkers_per_crowd = [1(x6), 0(x2)]

                         steps = 20
                        blocks = 200

  Creating the branching engine and walker controler
    Reference energy is updated using the unlimited_history scheme
  WalkerControl parameters 
    maxCopy = 2
    Max Walkers per MPI rank 11
    Min Walkers per MPI rank 2
    Using non-blocking send/recv
  Fluctuating population
  Persistent walkers are killed after 10 MC sweeps
  BranchInterval = 1
  Steps per block = 20
  Number of blocks = 200

  DMC Engine Initialization = 1.1631e-02 secs
  START ALL OVER 
  QMC counter             = -1
  time step               = 5.0000e-03
  effective time step     = 5.0000e-03
  trial energy            = -2.3870e+02
  reference energy        = -2.3870e+02
  reference variance      = 1.3463e+00
  Feedback                = 1.0000e+00
  target walkers          = 2048
  branching cutoff scheme = classic
  branch cutoff, max      = 5.0000e+01 7.5000e+01
  QMC Status (BranchMode) = 0000001101
===================================================================
--- Memory usage report : DMCBatched after initialLogEvaluation ---
===================================================================
Available memory on node 0, free + buffers : 1021372 MiB
Memory footprint by rank 0 on node 0       :    6571 MiB
Device memory allocated via OpenMP offload :    3925 MiB
Device memory allocated via SYCL allocator :       0 MiB
Free memory on the default device          :   60790 MiB
===================================================================
Completed block    1 of 200 average 4.569 secs/block after 139.8 secs

 Warmup is completed after 1000

  TauEff     = 4.9962e-03
 TauEff/Tau = 9.9923e-01
  Etrial     = -2.3894e+02
 Population average of energy = -2.3903e+02
                  Variance = 1.3980e+00
branch cutoff = 1.3980e+01 2.0970e+01
Completed block   50 of 200 average 4.326 secs/block after 351.6 secs
Completed block  100 of 200 average 4.333 secs/block after 568.7 secs
Completed block  150 of 200 average 4.333 secs/block after 785.4 secs
Completed block  200 of 200 average 4.334 secs/block after 1002 secs
====================================================
  End of a DMC section
    QMC counter                   = -1
    time step                     = 0.005
    effective time step           = 0.00499616
    trial energy                  = -239.021
    reference energy              = -239.011
    reference variance            = 1.39797
    target walkers                = 2048
    branch cutoff                 = 13.9797 20.9695
    Feedback                      = 1
    QMC Status (BranchMode)       = 0000001111
====================================================
=============================================
--- Memory usage report : DMCBatched ends ---
=============================================
Available memory on node 0, free + buffers :  944006 MiB
Memory footprint by rank 0 on node 0       :   12068 MiB
Device memory allocated via OpenMP offload :    3925 MiB
Device memory allocated via SYCL allocator :       0 MiB
Free memory on the default device          :   60788 MiB
=============================================
  Carry over 2069 walker configurations to the next QMC driver.
  DMCBatched Execution time = 8.6754e+02 secs
  Total Execution time = 9.7190e+02 secs

=========================================================
  A new xml input file : qmc.s001.cont.xml

Use --enable-timers=<value> command line option to increase or decrease level of timing information
Stack timer profile
Timer         Inclusive_time  Exclusive_time  Calls       Time_per_call
Total          997.8255     0.0130              1     997.825494869
  DMCBatched   867.5428   867.5428              1     867.542764922
  Startup       25.9228    25.9228              1      25.922834094
  VMCBatched   104.3469   104.3469              1     104.346871978

QMCPACK execution completed successfully
