  Input file(s): optJ123.in.xml 
================================================================
                        QMCPACK 4.1.0

          (c) Copyright 2003-2025 QMCPACK developers

                         Please cite:
      J. Kim et al. J. Phys. Cond. Mat. 30 195901 (2018)
           https://doi.org/10.1088/1361-648X/aab9c3
                             and
       P. Kent et al. J. Chem. Phys. 152 174105 (2020)
              https://doi.org/10.1063/5.0004860

  Git branch: HEAD
  Last git commit: c32123a5233186b177d75b800b86f1ad3b1a1413
  Last git commit date: Wed Apr 30 13:56:36 2025 -0400
  Last git commit subject: Merge pull request #5482 from QMCPACK/rc_410
================================================================
  Global options 

  Total number of MPI ranks = 64
  Number of MPI groups      = 1
  MPI group ID              = 0
  Number of ranks in group  = 64
  MPI ranks per node        = 2
  OMP 1st level threads     = 51
  OMP nested threading disabled or only 1 thread on the 2nd level

  Precision used in this calculation, see definitions in the manual:
  Base precision      = double
  Full precision      = double

  CPU only build
  Real build. QMC_COMPLEX=OFF
  Timer build option is enabled. Current timer level is coarse

=================================================
--- Memory usage report : when QMCPACK starts ---
=================================================
Available memory on node 0, free + buffers :  956295 MiB
Memory footprint by rank 0 on node 0       :     177 MiB
=================================================

  Input XML = optJ123.in.xml

  Project = optJ123
  date    = 2025-07-16 01:25:32 UTC
  host    = x4416c0s1b0n0


 Random Number
 -------------
  Offset for the random number seeds based on time: 908

  Range of prime numbers to use as seeds over processors and threads = 7103-39709


 Lattice
 -------
  Simulation cell radius   = 11.025001 bohr
  Wigner-Seitz cell radius = 11.025001 bohr

  Overwriting global supercell 
  Long-range breakup parameters:
    rc*kc = 15.000000; rc = 11.025001; kc = 1.360544; tol = 0.000300
  Long-range breakup parameters:
    rc*kc = 15.000000; rc = 11.025001; kc = 1.360544; tol = 0.000300
  KContainer initialised with cutoff 1.360544
   # of K-shell  = 168
   # of K points = 946

  Lattice (bohr):     24.9600019200                 0                 0
                                  0     22.0500016800                 0
                                  0                 0     40.7802899500

  Boundary Conditions:  p  p  p 

  Volume (bohr^3) = 22444.1700557078

  Reciprocal vectors without 2*pi.
    g_1 =       0.0400640995                 0                 0
    g_2 =                  0      0.0453514705                 0
    g_3 =                  0                 0      0.0245216501

  Metric tensor in real-space.
    h_1 = 623.0016958464 0.0000000000 0.0000000000 
    h_2 = 0.0000000000 486.2025740880 0.0000000000 
    h_3 = 0.0000000000 0.0000000000 1663.0320484061 

  Metric tensor in g-space.
    h_1 = 0.0633680741 0.0000000000 0.0000000000 
    h_2 = 0.0000000000 0.0811974673 0.0000000000 
    h_3 = 0.0000000000 0.0000000000 0.0237388195 

 Particle Set
 ------------
  Name: e   Offload : no

  All the species have the same mass 1.0000000000

  Creating Structure Factor for periodic systems 1.3605441140
  Particle set size: 180   Groups : 2


 Particle Set
 ------------
  Name: ion0   Offload : no

  Distinctive masses for each species 

  Creating Structure Factor for periodic systems 1.3605441140
  Particle set size: 36   Groups : 2


 Many-body wavefunction
 -------------------
  Name: psi0   Tasking: no


   Single particle orbitals (SPO) collection
   -----------------------------------------
    Name: bspline   Type input: bspline

  Created SPOSet builder named 'bspline' of type bspline

     Single particle orbitals (SPO)
     ------------------------------
      Name: spo_u   Type: spline   Builder class name: EinsplineSetBuilder

  TileMatrix = 
 [  3  0  0
    0  3  0
    0  0  1 ]
  Reading 90 orbitals from HDF5 file.
  HDF5 orbital file version 2.1.0
  Reading orbital file in ESHDF format.
  ESHDF orbital file version 2.1.0
  Lattice = 
    [  8.320001  0.000000  0.000000
       0.000000  7.350001  0.000000
       0.000000  0.000000 40.780290 ]
  SuperLattice = 
    [ 24.960002  0.000000  0.000000
       0.000000 22.050002  0.000000
       0.000000  0.000000 40.780290 ]

bands=14, elecs=180, spins=2, twists=9
Atom type(0) = 32
Atom type(1) = 32
Atom type(2) = 34
Atom type(3) = 34
   Skip initialization of the density
TIMER  EinsplineSetBuilder::ReadOrbitalInfo 0.0756645070
TIMER  EinsplineSetBuilder::BroadcastOrbitalInfo 0.0019118300
Found 1 distinct supercell twist based on 9 primitive cell k-points
Super twist #0:  [   0.00000   0.00000   0.00000 ]
QMCPACK WARNING twist attribute does't exist but twistnum attribute was found. This is potentially ambiguous. Specifying twist attribute is preferred.
  Using supercell twist 0:  [   0.00000   0.00000   0.00000]
Using 1 copies of twist angle [ 0.000,  0.000,  0.000]
Using 2 copies of twist angle [ 0.667,  0.000,  0.000]
Using 2 copies of twist angle [ 0.000,  0.667,  0.000]
Using 2 copies of twist angle [ 0.333,  0.667,  0.000]
Using 2 copies of twist angle [ 0.667,  0.667,  0.000]
Using complex splines.
70 complex-valued orbitals supplied by h5 can be expanded up to 126 SPOs.
Sorting the bands now:
We will read 50 distinct complex-valued orbitals from h5.
    Using real valued spline SPOs with complex single precision storage (C2R).
    Running on CPU.
    Running on CPU.
BandInfoGroup::selectBands bigspace has 70 distinct orbitals 
BandInfoGroup::selectBands using distinct orbitals [0,50)
  Number of distinct bands 50
  First Band index 0
  First SPO index 0
  Size of SPOs 90
  ClassName = SplineC2R
  Using complex einspline table
NumDistinctOrbitals 50 numOrbs = 90
B-spline mesh factor is 1.0000000000
B-spline mesh size is (100, 88, 486)
Maxmimum number of Gvecs 287797
MEMORY 1958 MB allocated for the coefficients in 3D spline orbital representation
Start transforming plane waves to 3D B-Splines.
  Time to gather the table = 6.4455122250
  SplineSetReader initialize_spline_pio 7.2782723050 sec
  Time to bcast the table = 0.5872059340
Time spent in creating B-spline SPOs 8.6585278940 sec

     Single particle orbitals (SPO)
     ------------------------------
      Name: spo_d   Type: spline   Builder class name: EinsplineSetBuilder

70 complex-valued orbitals supplied by h5 can be expanded up to 126 SPOs.
Sorting the bands now:
We will read 50 distinct complex-valued orbitals from h5.
    Running on CPU.
BandInfoGroup::selectBands bigspace has 70 distinct orbitals 
BandInfoGroup::selectBands using distinct orbitals [0,50)
  Number of distinct bands 50
  First Band index 0
  First SPO index 0
  Size of SPOs 90
  ClassName = SplineC2R
  Using complex einspline table
NumDistinctOrbitals 50 numOrbs = 90
B-spline mesh factor is 1.0000000000
B-spline mesh size is (100, 88, 486)
Maxmimum number of Gvecs 287797
MEMORY 1958 MB allocated for the coefficients in 3D spline orbital representation
Start transforming plane waves to 3D B-Splines.
  Time to gather the table = 6.4318496350
  SplineSetReader initialize_spline_pio 6.7568242700 sec
  Time to bcast the table = 0.5874611540
Time spent in creating B-spline SPOs 7.8542292990 sec

   Single Slater determinant
   -------------------------

     Determinant
     -----------
      Name: updet   Spin group: 0   SPO name: spo_u

      Setting delay_rank to default value 1
      Using rank-1 Sherman-Morrison Fahy update (SM1)
      Running on CPU.


     Determinant
     -----------
      Name: downdet   Spin group: 1   SPO name: spo_d

      Setting delay_rank to default value 1
      Using rank-1 Sherman-Morrison Fahy update (SM1)
      Running on CPU.

  Added a fermionic WaveFunctionComponent SlaterDet

   Jastrow
   -------
    Name: J1   Type: One-Body   Function: bspline

    Radial function for element: Se - e
     Number of parameters: 23
     Cusp: 0.0000000000
     Cutoff radius: 11.0250008400

       Name                        Value Type Use Index
     ------ ---------------------------- ---- --- -----
      eSe_0                -1.870777e+00    1  ON     0
      eSe_1                -1.907595e+00    1  ON     1
      eSe_2                -1.780913e+00    1  ON     2
      eSe_3                -1.650006e+00    1  ON     3
      eSe_4                -1.494003e+00    1  ON     4
      eSe_5                -1.328666e+00    1  ON     5
      eSe_6                -1.159690e+00    1  ON     6
      eSe_7                -9.934719e-01    1  ON     7
      eSe_8                -8.334752e-01    1  ON     8
      eSe_9                -6.877026e-01    1  ON     9
     eSe_10                -5.599109e-01    1  ON    10
     eSe_11                -4.508594e-01    1  ON    11
     eSe_12                -3.564800e-01    1  ON    12
     eSe_13                -2.761735e-01    1  ON    13
     eSe_14                -2.087354e-01    1  ON    14
     eSe_15                -1.536350e-01    1  ON    15
     eSe_16                -1.101448e-01    1  ON    16
     eSe_17                -7.619827e-02    1  ON    17
     eSe_18                -5.071553e-02    1  ON    18
     eSe_19                -3.160413e-02    1  ON    19
     eSe_20                -1.812472e-02    1  ON    20
     eSe_21                -8.784602e-03    1  ON    21
     eSe_22                -3.341282e-03    1  ON    22

    Radial function for element: Ge - e
     Number of parameters: 23
     Cusp: 0
     Cutoff radius: 11.025

       Name                        Value Type Use Index
     ------ ---------------------------- ---- --- -----
      eGe_0                -1.464546e+00    1  ON     0
      eGe_1                -1.509184e+00    1  ON     1
      eGe_2                -1.424109e+00    1  ON     2
      eGe_3                -1.344485e+00    1  ON     3
      eGe_4                -1.255036e+00    1  ON     4
      eGe_5                -1.154034e+00    1  ON     5
      eGe_6                -1.044426e+00    1  ON     6
      eGe_7                -9.245457e-01    1  ON     7
      eGe_8                -8.001332e-01    1  ON     8
      eGe_9                -6.787372e-01    1  ON     9
     eGe_10                -5.670708e-01    1  ON    10
     eGe_11                -4.654354e-01    1  ON    11
     eGe_12                -3.747691e-01    1  ON    12
     eGe_13                -2.947471e-01    1  ON    13
     eGe_14                -2.252432e-01    1  ON    14
     eGe_15                -1.680384e-01    1  ON    15
     eGe_16                -1.218252e-01    1  ON    16
     eGe_17                -8.521385e-02    1  ON    17
     eGe_18                -5.621716e-02    1  ON    18
     eGe_19                -3.423521e-02    1  ON    19
     eGe_20                -1.838376e-02    1  ON    20
     eGe_21                -8.310343e-03    1  ON    21
     eGe_22                -2.910276e-03    1  ON    22


   Jastrow
   -------
    Name: J2   Type: Two-Body   Function: bspline

    Radial function for species: u - u
     Number of parameters: 23
     Cusp: -0.25
     Cutoff radius: 11.025

      Name                        Value Type Use Index
     ----- ---------------------------- ---- --- -----
      uu_0                 6.689275e-01    1  ON     0
      uu_1                 5.637832e-01    1  ON     1
      uu_2                 4.727182e-01    1  ON     2
      uu_3                 3.964335e-01    1  ON     3
      uu_4                 3.327234e-01    1  ON     4
      uu_5                 2.785846e-01    1  ON     5
      uu_6                 2.325575e-01    1  ON     6
      uu_7                 1.934358e-01    1  ON     7
      uu_8                 1.606075e-01    1  ON     8
      uu_9                 1.333352e-01    1  ON     9
     uu_10                 1.106352e-01    1  ON    10
     uu_11                 9.164646e-02    1  ON    11
     uu_12                 7.557547e-02    1  ON    12
     uu_13                 6.194427e-02    1  ON    13
     uu_14                 5.017955e-02    1  ON    14
     uu_15                 4.010353e-02    1  ON    15
     uu_16                 3.151123e-02    1  ON    16
     uu_17                 2.413826e-02    1  ON    17
     uu_18                 1.785283e-02    1  ON    18
     uu_19                 1.251668e-02    1  ON    19
     uu_20                 8.245138e-03    1  ON    20
     uu_21                 4.737930e-03    1  ON    21
     uu_22                 2.457294e-03    1  ON    22

    Radial function for species: u - d
     Number of parameters: 23
     Cusp: -0.5
     Cutoff radius: 11.025

      Name                        Value Type Use Index
     ----- ---------------------------- ---- --- -----
      ud_0                 9.614995e-01    1  ON     0
      ud_1                 7.611100e-01    1  ON     1
      ud_2                 6.037358e-01    1  ON     2
      ud_3                 4.806076e-01    1  ON     3
      ud_4                 3.853891e-01    1  ON     4
      ud_5                 3.119098e-01    1  ON     5
      ud_6                 2.542651e-01    1  ON     6
      ud_7                 2.085555e-01    1  ON     7
      ud_8                 1.718006e-01    1  ON     8
      ud_9                 1.418849e-01    1  ON     9
     ud_10                 1.172356e-01    1  ON    10
     ud_11                 9.666445e-02    1  ON    11
     ud_12                 7.942496e-02    1  ON    12
     ud_13                 6.473179e-02    1  ON    13
     ud_14                 5.224732e-02    1  ON    14
     ud_15                 4.158164e-02    1  ON    15
     ud_16                 3.244482e-02    1  ON    16
     ud_17                 2.465346e-02    1  ON    17
     ud_18                 1.801706e-02    1  ON    18
     ud_19                 1.253252e-02    1  ON    19
     ud_20                 8.165963e-03    1  ON    20
     ud_21                 4.675699e-03    1  ON    21
     ud_22                 2.379844e-03    1  ON    22


   Jastrow
   -------
    Name: J3   Type: eeI   Function: polynomial

     Ion: Ge   electron-electron: u - u
      Number of parameters for e-e: 3, for e-I: 3
      Cutoff radius: 11.025

Expected 26 parameters, but found 0 in PolynomialFunctor3D.
         Name                        Value Type Use Index
      ------- ---------------------------- ---- --- -----
       uuGe_0                 0.000000e+00    1  ON     0
       uuGe_1                 0.000000e+00    1  ON     1
       uuGe_2                 0.000000e+00    1  ON     2
       uuGe_3                 0.000000e+00    1  ON     3
       uuGe_4                 0.000000e+00    1  ON     4
       uuGe_5                 0.000000e+00    1  ON     5
       uuGe_6                 0.000000e+00    1  ON     6
       uuGe_7                 0.000000e+00    1  ON     7
       uuGe_8                 0.000000e+00    1  ON     8
       uuGe_9                 0.000000e+00    1  ON     9
      uuGe_10                 0.000000e+00    1  ON    10
      uuGe_11                 0.000000e+00    1  ON    11
      uuGe_12                 0.000000e+00    1  ON    12
      uuGe_13                 0.000000e+00    1  ON    13
      uuGe_14                 0.000000e+00    1  ON    14
      uuGe_15                 0.000000e+00    1  ON    15
      uuGe_16                 0.000000e+00    1  ON    16
      uuGe_17                 0.000000e+00    1  ON    17
      uuGe_18                 0.000000e+00    1  ON    18
      uuGe_19                 0.000000e+00    1  ON    19
      uuGe_20                 0.000000e+00    1  ON    20
      uuGe_21                 0.000000e+00    1  ON    21
      uuGe_22                 0.000000e+00    1  ON    22
      uuGe_23                 0.000000e+00    1  ON    23
      uuGe_24                 0.000000e+00    1  ON    24
      uuGe_25                 0.000000e+00    1  ON    25

     Ion: Ge   electron-electron: u - d
      Number of parameters for e-e: 3, for e-I: 3
      Cutoff radius: 11.025

Expected 26 parameters, but found 0 in PolynomialFunctor3D.
         Name                        Value Type Use Index
      ------- ---------------------------- ---- --- -----
       udGe_0                 0.000000e+00    1  ON     0
       udGe_1                 0.000000e+00    1  ON     1
       udGe_2                 0.000000e+00    1  ON     2
       udGe_3                 0.000000e+00    1  ON     3
       udGe_4                 0.000000e+00    1  ON     4
       udGe_5                 0.000000e+00    1  ON     5
       udGe_6                 0.000000e+00    1  ON     6
       udGe_7                 0.000000e+00    1  ON     7
       udGe_8                 0.000000e+00    1  ON     8
       udGe_9                 0.000000e+00    1  ON     9
      udGe_10                 0.000000e+00    1  ON    10
      udGe_11                 0.000000e+00    1  ON    11
      udGe_12                 0.000000e+00    1  ON    12
      udGe_13                 0.000000e+00    1  ON    13
      udGe_14                 0.000000e+00    1  ON    14
      udGe_15                 0.000000e+00    1  ON    15
      udGe_16                 0.000000e+00    1  ON    16
      udGe_17                 0.000000e+00    1  ON    17
      udGe_18                 0.000000e+00    1  ON    18
      udGe_19                 0.000000e+00    1  ON    19
      udGe_20                 0.000000e+00    1  ON    20
      udGe_21                 0.000000e+00    1  ON    21
      udGe_22                 0.000000e+00    1  ON    22
      udGe_23                 0.000000e+00    1  ON    23
      udGe_24                 0.000000e+00    1  ON    24
      udGe_25                 0.000000e+00    1  ON    25

     Ion: Se   electron-electron: u - u
      Number of parameters for e-e: 3, for e-I: 3
      Cutoff radius: 11.025

Expected 26 parameters, but found 0 in PolynomialFunctor3D.
         Name                        Value Type Use Index
      ------- ---------------------------- ---- --- -----
       uuSe_0                 0.000000e+00    1  ON     0
       uuSe_1                 0.000000e+00    1  ON     1
       uuSe_2                 0.000000e+00    1  ON     2
       uuSe_3                 0.000000e+00    1  ON     3
       uuSe_4                 0.000000e+00    1  ON     4
       uuSe_5                 0.000000e+00    1  ON     5
       uuSe_6                 0.000000e+00    1  ON     6
       uuSe_7                 0.000000e+00    1  ON     7
       uuSe_8                 0.000000e+00    1  ON     8
       uuSe_9                 0.000000e+00    1  ON     9
      uuSe_10                 0.000000e+00    1  ON    10
      uuSe_11                 0.000000e+00    1  ON    11
      uuSe_12                 0.000000e+00    1  ON    12
      uuSe_13                 0.000000e+00    1  ON    13
      uuSe_14                 0.000000e+00    1  ON    14
      uuSe_15                 0.000000e+00    1  ON    15
      uuSe_16                 0.000000e+00    1  ON    16
      uuSe_17                 0.000000e+00    1  ON    17
      uuSe_18                 0.000000e+00    1  ON    18
      uuSe_19                 0.000000e+00    1  ON    19
      uuSe_20                 0.000000e+00    1  ON    20
      uuSe_21                 0.000000e+00    1  ON    21
      uuSe_22                 0.000000e+00    1  ON    22
      uuSe_23                 0.000000e+00    1  ON    23
      uuSe_24                 0.000000e+00    1  ON    24
      uuSe_25                 0.000000e+00    1  ON    25

     Ion: Se   electron-electron: u - d
      Number of parameters for e-e: 3, for e-I: 3
      Cutoff radius: 11.025

Expected 26 parameters, but found 0 in PolynomialFunctor3D.
         Name                        Value Type Use Index
      ------- ---------------------------- ---- --- -----
       udSe_0                 0.000000e+00    1  ON     0
       udSe_1                 0.000000e+00    1  ON     1
       udSe_2                 0.000000e+00    1  ON     2
       udSe_3                 0.000000e+00    1  ON     3
       udSe_4                 0.000000e+00    1  ON     4
       udSe_5                 0.000000e+00    1  ON     5
       udSe_6                 0.000000e+00    1  ON     6
       udSe_7                 0.000000e+00    1  ON     7
       udSe_8                 0.000000e+00    1  ON     8
       udSe_9                 0.000000e+00    1  ON     9
      udSe_10                 0.000000e+00    1  ON    10
      udSe_11                 0.000000e+00    1  ON    11
      udSe_12                 0.000000e+00    1  ON    12
      udSe_13                 0.000000e+00    1  ON    13
      udSe_14                 0.000000e+00    1  ON    14
      udSe_15                 0.000000e+00    1  ON    15
      udSe_16                 0.000000e+00    1  ON    16
      udSe_17                 0.000000e+00    1  ON    17
      udSe_18                 0.000000e+00    1  ON    18
      udSe_19                 0.000000e+00    1  ON    19
      udSe_20                 0.000000e+00    1  ON    20
      udSe_21                 0.000000e+00    1  ON    21
      udSe_22                 0.000000e+00    1  ON    22
      udSe_23                 0.000000e+00    1  ON    23
      udSe_24                 0.000000e+00    1  ON    24
      udSe_25                 0.000000e+00    1  ON    25

  Wave function psi0 parameters:
       Name                        Value Type Use Index
    ------- ---------------------------- ---- --- -----
      eGe_0                -1.464546e+00    1  ON     0
      eGe_1                -1.509184e+00    1  ON     1
      eGe_2                -1.424109e+00    1  ON     2
      eGe_3                -1.344485e+00    1  ON     3
      eGe_4                -1.255036e+00    1  ON     4
      eGe_5                -1.154034e+00    1  ON     5
      eGe_6                -1.044426e+00    1  ON     6
      eGe_7                -9.245457e-01    1  ON     7
      eGe_8                -8.001332e-01    1  ON     8
      eGe_9                -6.787372e-01    1  ON     9
     eGe_10                -5.670708e-01    1  ON    10
     eGe_11                -4.654354e-01    1  ON    11
     eGe_12                -3.747691e-01    1  ON    12
     eGe_13                -2.947471e-01    1  ON    13
     eGe_14                -2.252432e-01    1  ON    14
     eGe_15                -1.680384e-01    1  ON    15
     eGe_16                -1.218252e-01    1  ON    16
     eGe_17                -8.521385e-02    1  ON    17
     eGe_18                -5.621716e-02    1  ON    18
     eGe_19                -3.423521e-02    1  ON    19
     eGe_20                -1.838376e-02    1  ON    20
     eGe_21                -8.310343e-03    1  ON    21
     eGe_22                -2.910276e-03    1  ON    22
      eSe_0                -1.870777e+00    1  ON    23
      eSe_1                -1.907595e+00    1  ON    24
      eSe_2                -1.780913e+00    1  ON    25
      eSe_3                -1.650006e+00    1  ON    26
      eSe_4                -1.494003e+00    1  ON    27
      eSe_5                -1.328666e+00    1  ON    28
      eSe_6                -1.159690e+00    1  ON    29
      eSe_7                -9.934719e-01    1  ON    30
      eSe_8                -8.334752e-01    1  ON    31
      eSe_9                -6.877026e-01    1  ON    32
     eSe_10                -5.599109e-01    1  ON    33
     eSe_11                -4.508594e-01    1  ON    34
     eSe_12                -3.564800e-01    1  ON    35
     eSe_13                -2.761735e-01    1  ON    36
     eSe_14                -2.087354e-01    1  ON    37
     eSe_15                -1.536350e-01    1  ON    38
     eSe_16                -1.101448e-01    1  ON    39
     eSe_17                -7.619827e-02    1  ON    40
     eSe_18                -5.071553e-02    1  ON    41
     eSe_19                -3.160413e-02    1  ON    42
     eSe_20                -1.812472e-02    1  ON    43
     eSe_21                -8.784602e-03    1  ON    44
     eSe_22                -3.341282e-03    1  ON    45
       uu_0                 6.689275e-01    1  ON    46
       uu_1                 5.637832e-01    1  ON    47
       uu_2                 4.727182e-01    1  ON    48
       uu_3                 3.964335e-01    1  ON    49
       uu_4                 3.327234e-01    1  ON    50
       uu_5                 2.785846e-01    1  ON    51
       uu_6                 2.325575e-01    1  ON    52
       uu_7                 1.934358e-01    1  ON    53
       uu_8                 1.606075e-01    1  ON    54
       uu_9                 1.333352e-01    1  ON    55
      uu_10                 1.106352e-01    1  ON    56
      uu_11                 9.164646e-02    1  ON    57
      uu_12                 7.557547e-02    1  ON    58
      uu_13                 6.194427e-02    1  ON    59
      uu_14                 5.017955e-02    1  ON    60
      uu_15                 4.010353e-02    1  ON    61
      uu_16                 3.151123e-02    1  ON    62
      uu_17                 2.413826e-02    1  ON    63
      uu_18                 1.785283e-02    1  ON    64
      uu_19                 1.251668e-02    1  ON    65
      uu_20                 8.245138e-03    1  ON    66
      uu_21                 4.737930e-03    1  ON    67
      uu_22                 2.457294e-03    1  ON    68
       ud_0                 9.614995e-01    1  ON    69
       ud_1                 7.611100e-01    1  ON    70
       ud_2                 6.037358e-01    1  ON    71
       ud_3                 4.806076e-01    1  ON    72
       ud_4                 3.853891e-01    1  ON    73
       ud_5                 3.119098e-01    1  ON    74
       ud_6                 2.542651e-01    1  ON    75
       ud_7                 2.085555e-01    1  ON    76
       ud_8                 1.718006e-01    1  ON    77
       ud_9                 1.418849e-01    1  ON    78
      ud_10                 1.172356e-01    1  ON    79
      ud_11                 9.666445e-02    1  ON    80
      ud_12                 7.942496e-02    1  ON    81
      ud_13                 6.473179e-02    1  ON    82
      ud_14                 5.224732e-02    1  ON    83
      ud_15                 4.158164e-02    1  ON    84
      ud_16                 3.244482e-02    1  ON    85
      ud_17                 2.465346e-02    1  ON    86
      ud_18                 1.801706e-02    1  ON    87
      ud_19                 1.253252e-02    1  ON    88
      ud_20                 8.165963e-03    1  ON    89
      ud_21                 4.675699e-03    1  ON    90
      ud_22                 2.379844e-03    1  ON    91
     uuGe_0                 0.000000e+00    1  ON    92
     uuGe_1                 0.000000e+00    1  ON    93
     uuGe_2                 0.000000e+00    1  ON    94
     uuGe_3                 0.000000e+00    1  ON    95
     uuGe_4                 0.000000e+00    1  ON    96
     uuGe_5                 0.000000e+00    1  ON    97
     uuGe_6                 0.000000e+00    1  ON    98
     uuGe_7                 0.000000e+00    1  ON    99
     uuGe_8                 0.000000e+00    1  ON   100
     uuGe_9                 0.000000e+00    1  ON   101
    uuGe_10                 0.000000e+00    1  ON   102
    uuGe_11                 0.000000e+00    1  ON   103
    uuGe_12                 0.000000e+00    1  ON   104
    uuGe_13                 0.000000e+00    1  ON   105
    uuGe_14                 0.000000e+00    1  ON   106
    uuGe_15                 0.000000e+00    1  ON   107
    uuGe_16                 0.000000e+00    1  ON   108
    uuGe_17                 0.000000e+00    1  ON   109
    uuGe_18                 0.000000e+00    1  ON   110
    uuGe_19                 0.000000e+00    1  ON   111
    uuGe_20                 0.000000e+00    1  ON   112
    uuGe_21                 0.000000e+00    1  ON   113
    uuGe_22                 0.000000e+00    1  ON   114
    uuGe_23                 0.000000e+00    1  ON   115
    uuGe_24                 0.000000e+00    1  ON   116
    uuGe_25                 0.000000e+00    1  ON   117
     udGe_0                 0.000000e+00    1  ON   118
     udGe_1                 0.000000e+00    1  ON   119
     udGe_2                 0.000000e+00    1  ON   120
     udGe_3                 0.000000e+00    1  ON   121
     udGe_4                 0.000000e+00    1  ON   122
     udGe_5                 0.000000e+00    1  ON   123
     udGe_6                 0.000000e+00    1  ON   124
     udGe_7                 0.000000e+00    1  ON   125
     udGe_8                 0.000000e+00    1  ON   126
     udGe_9                 0.000000e+00    1  ON   127
    udGe_10                 0.000000e+00    1  ON   128
    udGe_11                 0.000000e+00    1  ON   129
    udGe_12                 0.000000e+00    1  ON   130
    udGe_13                 0.000000e+00    1  ON   131
    udGe_14                 0.000000e+00    1  ON   132
    udGe_15                 0.000000e+00    1  ON   133
    udGe_16                 0.000000e+00    1  ON   134
    udGe_17                 0.000000e+00    1  ON   135
    udGe_18                 0.000000e+00    1  ON   136
    udGe_19                 0.000000e+00    1  ON   137
    udGe_20                 0.000000e+00    1  ON   138
    udGe_21                 0.000000e+00    1  ON   139
    udGe_22                 0.000000e+00    1  ON   140
    udGe_23                 0.000000e+00    1  ON   141
    udGe_24                 0.000000e+00    1  ON   142
    udGe_25                 0.000000e+00    1  ON   143
     uuSe_0                 0.000000e+00    1  ON   144
     uuSe_1                 0.000000e+00    1  ON   145
     uuSe_2                 0.000000e+00    1  ON   146
     uuSe_3                 0.000000e+00    1  ON   147
     uuSe_4                 0.000000e+00    1  ON   148
     uuSe_5                 0.000000e+00    1  ON   149
     uuSe_6                 0.000000e+00    1  ON   150
     uuSe_7                 0.000000e+00    1  ON   151
     uuSe_8                 0.000000e+00    1  ON   152
     uuSe_9                 0.000000e+00    1  ON   153
    uuSe_10                 0.000000e+00    1  ON   154
    uuSe_11                 0.000000e+00    1  ON   155
    uuSe_12                 0.000000e+00    1  ON   156
    uuSe_13                 0.000000e+00    1  ON   157
    uuSe_14                 0.000000e+00    1  ON   158
    uuSe_15                 0.000000e+00    1  ON   159
    uuSe_16                 0.000000e+00    1  ON   160
    uuSe_17                 0.000000e+00    1  ON   161
    uuSe_18                 0.000000e+00    1  ON   162
    uuSe_19                 0.000000e+00    1  ON   163
    uuSe_20                 0.000000e+00    1  ON   164
    uuSe_21                 0.000000e+00    1  ON   165
    uuSe_22                 0.000000e+00    1  ON   166
    uuSe_23                 0.000000e+00    1  ON   167
    uuSe_24                 0.000000e+00    1  ON   168
    uuSe_25                 0.000000e+00    1  ON   169
     udSe_0                 0.000000e+00    1  ON   170
     udSe_1                 0.000000e+00    1  ON   171
     udSe_2                 0.000000e+00    1  ON   172
     udSe_3                 0.000000e+00    1  ON   173
     udSe_4                 0.000000e+00    1  ON   174
     udSe_5                 0.000000e+00    1  ON   175
     udSe_6                 0.000000e+00    1  ON   176
     udSe_7                 0.000000e+00    1  ON   177
     udSe_8                 0.000000e+00    1  ON   178
     udSe_9                 0.000000e+00    1  ON   179
    udSe_10                 0.000000e+00    1  ON   180
    udSe_11                 0.000000e+00    1  ON   181
    udSe_12                 0.000000e+00    1  ON   182
    udSe_13                 0.000000e+00    1  ON   183
    udSe_14                 0.000000e+00    1  ON   184
    udSe_15                 0.000000e+00    1  ON   185
    udSe_16                 0.000000e+00    1  ON   186
    udSe_17                 0.000000e+00    1  ON   187
    udSe_18                 0.000000e+00    1  ON   188
    udSe_19                 0.000000e+00    1  ON   189
    udSe_20                 0.000000e+00    1  ON   190
    udSe_21                 0.000000e+00    1  ON   191
    udSe_22                 0.000000e+00    1  ON   192
    udSe_23                 0.000000e+00    1  ON   193
    udSe_24                 0.000000e+00    1  ON   194
    udSe_25                 0.000000e+00    1  ON   195

  Adding psi0 TrialWaveFunction to the pool

 Hamiltonian and observables
 ---------------------------
  Name: h0

  QMCHamiltonian::addOperator Kinetic to H, physical Hamiltonian 

   Pseudo Potential
   ----------------
    Name: PseudoPot   Wavefunction : psi0


  Adding pseudopotential for Ge
   Linear grid  ri=0 rf=10 npts = 10001
    ECPComponentBuilder::buildSemiLocalAndLocal 
QMCPACK WARNING Nrule was not determined from qmcpack input or pseudopotential file. Setting sensible default.
    Assuming Hartree unit
 l-local setting found in pseudopotential file and used.
   Number of angular momentum channels 4
   Maximum angular momentum channel (Lmax) 3
   Creating a Linear Grid Rmax=4.425
  Using global grid with delta = 0.001
   Making L=3 a local potential with a radial cutoff of 9.999
  Quadrature Nrule: 4
    Non-local pseudopotential parameters
    Maximum angular momentum = 2
    Number of non-local channels = 3
       l(0)=0
       l(1)=1
       l(2)=2
    Cutoff radius = 4.425
    Number of spherical integration grid points = 12
    Spherical grid and weights: 
                        1                 0                 0       0.08333333333
                       -1   1.224646799e-16                 0       0.08333333333
             0.4472135955       0.894427191                 0       0.08333333333
            -0.4472135955      0.7236067977      0.5257311121       0.08333333333
             0.4472135955      0.2763932023      0.8506508084       0.08333333333
            -0.4472135955     -0.2763932023      0.8506508084       0.08333333333
             0.4472135955     -0.7236067977      0.5257311121       0.08333333333
            -0.4472135955      -0.894427191   1.095357397e-16       0.08333333333
             0.4472135955     -0.7236067977     -0.5257311121       0.08333333333
            -0.4472135955     -0.2763932023     -0.8506508084       0.08333333333
             0.4472135955      0.2763932023     -0.8506508084       0.08333333333
            -0.4472135955      0.7236067977     -0.5257311121       0.08333333333
    Maximum cutoff radius 4.425

  Adding pseudopotential for Se
   Linear grid  ri=0 rf=10 npts = 10001
    ECPComponentBuilder::buildSemiLocalAndLocal 
QMCPACK WARNING Nrule was not determined from qmcpack input or pseudopotential file. Setting sensible default.
    Assuming Hartree unit
 l-local setting found in pseudopotential file and used.
   Number of angular momentum channels 4
   Maximum angular momentum channel (Lmax) 3
   Creating a Linear Grid Rmax=3.085
  Using global grid with delta = 0.001
   Making L=3 a local potential with a radial cutoff of 9.999
  Quadrature Nrule: 4
    Non-local pseudopotential parameters
    Maximum angular momentum = 2
    Number of non-local channels = 3
       l(0)=0
       l(1)=1
       l(2)=2
    Cutoff radius = 3.085
    Number of spherical integration grid points = 12
    Spherical grid and weights: 
                        1                 0                 0       0.08333333333
                       -1   1.224646799e-16                 0       0.08333333333
             0.4472135955       0.894427191                 0       0.08333333333
            -0.4472135955      0.7236067977      0.5257311121       0.08333333333
             0.4472135955      0.2763932023      0.8506508084       0.08333333333
            -0.4472135955     -0.2763932023      0.8506508084       0.08333333333
             0.4472135955     -0.7236067977      0.5257311121       0.08333333333
            -0.4472135955      -0.894427191   1.095357397e-16       0.08333333333
             0.4472135955     -0.7236067977     -0.5257311121       0.08333333333
            -0.4472135955     -0.2763932023     -0.8506508084       0.08333333333
             0.4472135955      0.2763932023     -0.8506508084       0.08333333333
            -0.4472135955      0.7236067977     -0.5257311121       0.08333333333
    Maximum cutoff radius 3.085

  Creating CoulombHandler with the Esler Optimized Breakup. 
  KContainer initialised with cutoff 6.682412378
   # of K-shell  = 15262
   # of K points = 113124

  NUMBER OF OPT_BREAK KVECS = 61090037470
 finding kc:  1.360544114 , 1.360544114
  LRBreakp parameter Kc =1.360544114
    Continuum approximation in k = [6.682412378,544.2176456)

   LR Breakup chi^2 = 3.75726e-17
   Constant of PBCAB 72.182
    CoulombPBCAB::initBreakup
  Setting a linear grid=[0,11.025) number of grid points =1001
  Rcut                11.025
  Maximum K shell     167
  Number of k vectors 946
    CoulombPBCAB::add 
 Setting a linear grid=[0,11.025) number of grid =10000
    Creating the short-range pseudopotential for species 0
    CoulombPBCAB::add 
 Setting a linear grid=[0,11.025) number of grid =10000
    Creating the short-range pseudopotential for species 1
  QMCHamiltonian::addOperator LocalECP to H, physical Hamiltonian 

  Using NonLocalECP potential 
    Maximum grid on a sphere for NonLocalECPotential: 12
    Using batched ratio computing in NonLocalECP
  QMCHamiltonian::addOperator NonLocalECP to H, physical Hamiltonian 

   Coulomb Potential
   -----------------
    Name: ElecElec   Type: AA   PBC: yes

  Clone CoulombHandler. 
   PBCAA self-interaction term -24.811
   PBCAA total constant -60.902
    CoulombPBCAA::initBreakup
  Setting a linear grid=[0,11.025) number of grid points =1001
  Maximum K shell 167
  Number of k vectors 946
  Fixed Coulomb potential for e
    e-e Madelung Const. =-0.044117134
    Vtot     =0
  QMCHamiltonian::addOperator ElecElec to H, physical Hamiltonian 
QMCHamiltonian::addOperatorType added type coulomb named ElecElec

   Coulomb Potential
   -----------------
    Name: IonIon   Type: AA   PBC: yes

  Clone CoulombHandler. 
   PBCAA self-interaction term -129.01736
   PBCAA total constant -165.10833
    CoulombPBCAA::initBreakup
  Setting a linear grid=[0,11.025001) number of grid points =1001
Checking ion-ion Ewald energy against reference...
  Check passed.
  Maximum K shell 167
  Number of k vectors 946
  Fixed Coulomb potential for ion0
    e-e Madelung Const. =-0.044117134
    Vtot     =560.92693
  QMCHamiltonian::addOperator IonIon to H, physical Hamiltonian 
QMCHamiltonian::addOperatorType added type coulomb named IonIon

  QMCHamiltonian::add2WalkerProperty added
    5 to P::PropertyList 
    0 to P::Collectables 
    starting Index of the observables in P::PropertyList = 9
ParticleSetPool::randomize 1 ParticleSet.
<init source="ion0" target="e">
</init>
  Initialization Execution time = 17.51 secs
=========================================================
 Summary of QMC systems 
=========================================================
ParticleSetPool has: 

  ParticleSet 'e' contains 180 particles :  u(90) d(90)

    u  3.7011428631e+00  1.3666973824e+00  2.4340291953e+01
    u  4.7772673294e+00  1.7756639115e+00  2.3532483057e+01
    u  8.3779528584e+00  4.2896539466e+00  1.8445078641e+01
    u  7.7997169903e+00  7.0712417789e+00  1.8105031515e+01
    u  1.1164579271e+01  5.6763408396e-01  2.3702186071e+01
    u  1.1351112652e+01  2.8622853614e+00  2.1665013383e+01
    u  1.7060308429e+01  6.1510854343e+00  1.7158780486e+01
    u  1.6880007919e+01  4.4106768183e+00  1.8366543548e+01
    u  1.9902103464e+01  4.8868827248e-01  2.3715469056e+01
    u  2.0887910168e+01  1.9988420241e+00  2.4156481810e+01
    (... and 170 more particle positions ...)

  Distance table for dissimilar particles (A-B):
    source: ion0  target: e
    Using structure-of-arrays (SoA) data layout
    Distance computations use orthorhombic periodic cell in 3D.

  Distance table for similar particles (A-A):
    source/target: e
    Using structure-of-arrays (SoA) data layout
    Distance computations use orthorhombic periodic cell in 3D.


  ParticleSet 'ion0' contains 36 particles :  Ge(18) Se(18)

    Ge  3.3280002600e+00  1.8375001400e+00  2.2857352520e+01
    Ge  7.4880005800e+00  5.5125004200e+00  1.7922937430e+01
    Ge  1.1648000900e+01  1.8375001400e+00  2.2857352520e+01
    Ge  1.5808001220e+01  5.5125004200e+00  1.7922937430e+01
    Ge  1.9968001540e+01  1.8375001400e+00  2.2857352520e+01
    Ge  2.4128001860e+01  5.5125004200e+00  1.7922937430e+01
    Ge  3.3280002600e+00  9.1875007000e+00  2.2857352520e+01
    Ge  7.4880005800e+00  1.2862500980e+01  1.7922937430e+01
    Ge  1.1648000900e+01  9.1875007000e+00  2.2857352520e+01
    Ge  1.5808001220e+01  1.2862500980e+01  1.7922937430e+01
    (... and 26 more particle positions ...)

  Distance table for similar particles (A-A):
    source/target: ion0
    Using structure-of-arrays (SoA) data layout
    Distance computations use orthorhombic periodic cell in 3D.


  Hamiltonian h0
  Kinetic         Kinetic energy
  LocalECP        CoulombPBCAB potential source: ion0
  NonLocalECP     NonLocalECPotential: ion0
  ElecElec        CoulombPBCAA potential: e_e
  IonIon          CoulombPBCAA potential: ion0_ion0

Loop execution max-interations = 10

========================================
  Reading WFOpt driver XML input section
========================================
  Random walking without drift
 Legacy constructor adding a default LocalEnergyEstimator for the MainEstimator 

=========================================================
  Start QMCLinearOptimizeBatched
  File Root optJ123.s000
=========================================================
  Random walking without drift
 Legacy constructor adding a default LocalEnergyEstimator for the MainEstimator 

=========================================================
  Start VMCBatched
  File Root optJ123.s000
=========================================================
==============================================================
--- Memory usage report : VMCBatched before initialization ---
==============================================================
Available memory on node 0, free + buffers :  948050 MiB
Memory footprint by rank 0 on node 0       :    5994 MiB
==============================================================
VMCBatched Driver running with
             total_walkers     = 3264
             walkers_per_rank  = [51(x64)]
             num_crowds        = 51
  on rank 0, walkers_per_crowd = [1(x51)]

                         steps = 4 (different from input value 0)
                        blocks = 10

VMCBatched Driver collecting samples, samples per rank = 2040
                                      total samples    = 130560

 Using QMCCostFunctionBatched::QMCCostFunctionBatched
 TrialWaveFunction "psi0" has 8 optimizable objects:
   'eGe' optimized
   'eSe' optimized
   'uu' optimized
   'ud' optimized
   'uuGe' optimized
   'udGe' optimized
   'uuSe' optimized
   'udSe' optimized
 Variational subset selects 196 parameters.
 In total 196 parameters being optimized after applying constraints.
 Using Default Cost Function: Cost = <|E-E_ff|^2>

******************
Generating samples
******************

===================================================================
--- Memory usage report : VMCBatched after initialLogEvaluation ---
===================================================================
Available memory on node 0, free + buffers :  947785 MiB
Memory footprint by rank 0 on node 0       :    5994 MiB
===================================================================
=====================================================
--- Memory usage report : VMCBatched after Warmup ---
=====================================================
Available memory on node 0, free + buffers :  947769 MiB
Memory footprint by rank 0 on node 0       :    5994 MiB
=====================================================
VMC Warmup completed in 1.1253e+00 secs
Completed block    1 of 10 average 0.8592 secs/block after 22.37 secs
Completed block    2 of 10 average 0.7647 secs/block after 23.04 secs
Completed block    5 of 10 average 0.6603 secs/block after 24.82 secs
Completed block    7 of 10 average 0.6415 secs/block after 26.01 secs
Completed block   10 of 10 average 0.6257 secs/block after 27.78 secs
====================================================
  End of a VMC section
    QMC counter        = 0
    time step          = 0.3
    reference energy   = -238.679
    reference variance = 1.96689
====================================================
=============================================
--- Memory usage report : VMCBatched ends ---
=============================================
Available memory on node 0, free + buffers :  947761 MiB
Memory footprint by rank 0 on node 0       :    5994 MiB
=============================================
  Carry over 3264 walker configurations to the next QMC driver.
  Execution time (sampling) = 8.3564e+00

*****************************
Compute parameter derivatives
*****************************

 Found 2 wavefunction dependent components in the Hamiltonian 'Kinetic' 'NonLocalECP'.
  VMC Eavg = -2.3868e+02
  VMC Evar = 1.9670e+00
  Total weights = 1.3056e+05
  Execution time (derivatives) = 1.4933e+01

*****************************************
Building overlap and Hamiltonian matrices
*****************************************
  Execution time (building matrices) = 3.3947e-02

**************************
Solving eigenvalue problem
**************************
  Using inverse + regular eigenvalue solver (geev)
  Execution time (eigenvalue) = 2.9156e-02

Among totally 196 optimized parameters, largest LM parameter change : 1.3766e-01 at parameter 27
Effective weight of all the samples measured by correlated sampling is 9.3260e-01

******************************************************************************
Init Cost =  -2.1461e+02    New Cost =  -2.1478e+02  Delta Cost =  -1.6612e-01
******************************************************************************

The new set of parameters is valid. Updating the trial wave function!

*****************************************************************************
Applying the update for shift_i =   1.0000e-02     and shift_s =   2.5000e-01
*****************************************************************************
  Updated wave function parameters:
       Name                        Value Type Use Index
    ------- ---------------------------- ---- --- -----
      eGe_0                -1.434114e+00    1  ON     0
      eGe_1                -1.483006e+00    1  ON     1
      eGe_2                -1.455005e+00    1  ON     2
      eGe_3                -1.410560e+00    1  ON     3
      eGe_4                -1.328716e+00    1  ON     4
      eGe_5                -1.215976e+00    1  ON     5
      eGe_6                -1.086164e+00    1  ON     6
      eGe_7                -9.470438e-01    1  ON     7
      eGe_8                -8.106466e-01    1  ON     8
      eGe_9                -6.849720e-01    1  ON     9
     eGe_10                -5.743329e-01    1  ON    10
     eGe_11                -4.756169e-01    1  ON    11
     eGe_12                -3.842157e-01    1  ON    12
     eGe_13                -3.034845e-01    1  ON    13
     eGe_14                -2.329136e-01    1  ON    14
     eGe_15                -1.738360e-01    1  ON    15
     eGe_16                -1.254133e-01    1  ON    16
     eGe_17                -8.743162e-02    1  ON    17
     eGe_18                -5.768733e-02    1  ON    18
     eGe_19                -3.518534e-02    1  ON    19
     eGe_20                -1.920562e-02    1  ON    20
     eGe_21                -8.998758e-03    1  ON    21
     eGe_22                -3.279964e-03    1  ON    22
      eSe_0                -1.838516e+00    1  ON    23
      eSe_1                -1.886851e+00    1  ON    24
      eSe_2                -1.839694e+00    1  ON    25
      eSe_3                -1.771965e+00    1  ON    26
      eSe_4                -1.631660e+00    1  ON    27
      eSe_5                -1.442456e+00    1  ON    28
      eSe_6                -1.235169e+00    1  ON    29
      eSe_7                -1.032497e+00    1  ON    30
      eSe_8                -8.441746e-01    1  ON    31
      eSe_9                -6.776817e-01    1  ON    32
     eSe_10                -5.365945e-01    1  ON    33
     eSe_11                -4.207186e-01    1  ON    34
     eSe_12                -3.318949e-01    1  ON    35
     eSe_13                -2.581237e-01    1  ON    36
     eSe_14                -1.957077e-01    1  ON    37
     eSe_15                -1.443430e-01    1  ON    38
     eSe_16                -1.032771e-01    1  ON    39
     eSe_17                -7.159821e-02    1  ON    40
     eSe_18                -4.761702e-02    1  ON    41
     eSe_19                -2.939004e-02    1  ON    42
     eSe_20                -1.646121e-02    1  ON    43
     eSe_21                -7.738069e-03    1  ON    44
     eSe_22                -2.884305e-03    1  ON    45
       uu_0                 6.509900e-01    1  ON    46
       uu_1                 5.409685e-01    1  ON    47
       uu_2                 4.524349e-01    1  ON    48
       uu_3                 3.788109e-01    1  ON    49
       uu_4                 3.173417e-01    1  ON    50
       uu_5                 2.650446e-01    1  ON    51
       uu_6                 2.206936e-01    1  ON    52
       uu_7                 1.839394e-01    1  ON    53
       uu_8                 1.535194e-01    1  ON    54
       uu_9                 1.283352e-01    1  ON    55
      uu_10                 1.071628e-01    1  ON    56
      uu_11                 8.923774e-02    1  ON    57
      uu_12                 7.399618e-02    1  ON    58
      uu_13                 6.077325e-02    1  ON    59
      uu_14                 4.945553e-02    1  ON    60
      uu_15                 3.966793e-02    1  ON    61
      uu_16                 3.114861e-02    1  ON    62
      uu_17                 2.377023e-02    1  ON    63
      uu_18                 1.752658e-02    1  ON    64
      uu_19                 1.228136e-02    1  ON    65
      uu_20                 8.068813e-03    1  ON    66
      uu_21                 4.627249e-03    1  ON    67
      uu_22                 2.334859e-03    1  ON    68
       ud_0                 9.843737e-01    1  ON    69
       ud_1                 7.767829e-01    1  ON    70
       ud_2                 6.143633e-01    1  ON    71
       ud_3                 4.872586e-01    1  ON    72
       ud_4                 3.873261e-01    1  ON    73
       ud_5                 3.080942e-01    1  ON    74
       ud_6                 2.464213e-01    1  ON    75
       ud_7                 1.999634e-01    1  ON    76
       ud_8                 1.644659e-01    1  ON    77
       ud_9                 1.366617e-01    1  ON    78
      ud_10                 1.137582e-01    1  ON    79
      ud_11                 9.451298e-02    1  ON    80
      ud_12                 7.807357e-02    1  ON    81
      ud_13                 6.394856e-02    1  ON    82
      ud_14                 5.186135e-02    1  ON    83
      ud_15                 4.141583e-02    1  ON    84
      ud_16                 3.241977e-02    1  ON    85
      ud_17                 2.465518e-02    1  ON    86
      ud_18                 1.803692e-02    1  ON    87
      ud_19                 1.255056e-02    1  ON    88
      ud_20                 8.266481e-03    1  ON    89
      ud_21                 4.701702e-03    1  ON    90
      ud_22                 2.425858e-03    1  ON    91
     uuGe_0                -2.157955e-06    1  ON    92
     uuGe_1                 1.825563e-05    1  ON    93
     uuGe_2                 5.971554e-06    1  ON    94
     uuGe_3                 5.681877e-06    1  ON    95
     uuGe_4                -3.119311e-07    1  ON    96
     uuGe_5                -1.264463e-06    1  ON    97
     uuGe_6                 3.179706e-05    1  ON    98
     uuGe_7                 2.888802e-06    1  ON    99
     uuGe_8                 1.632833e-08    1  ON   100
     uuGe_9                -2.308838e-05    1  ON   101
    uuGe_10                 1.572325e-06    1  ON   102
    uuGe_11                -4.333430e-06    1  ON   103
    uuGe_12                 4.326816e-07    1  ON   104
    uuGe_13                -8.052446e-06    1  ON   105
    uuGe_14                -6.560203e-07    1  ON   106
    uuGe_15                 1.001279e-08    1  ON   107
    uuGe_16                 3.006206e-05    1  ON   108
    uuGe_17                -1.184921e-05    1  ON   109
    uuGe_18                 3.724841e-06    1  ON   110
    uuGe_19                -3.539353e-07    1  ON   111
    uuGe_20                -1.006203e-06    1  ON   112
    uuGe_21                -1.602143e-07    1  ON   113
    uuGe_22                 2.701349e-08    1  ON   114
    uuGe_23                 4.969747e-08    1  ON   115
    uuGe_24                 2.325608e-08    1  ON   116
    uuGe_25                -4.218566e-09    1  ON   117
     udGe_0                -1.728714e-05    1  ON   118
     udGe_1                 1.909807e-05    1  ON   119
     udGe_2                 2.340314e-05    1  ON   120
     udGe_3                 3.059502e-05    1  ON   121
     udGe_4                 9.820391e-07    1  ON   122
     udGe_5                -2.448065e-06    1  ON   123
     udGe_6                 7.070156e-05    1  ON   124
     udGe_7                 9.072319e-06    1  ON   125
     udGe_8                -1.009929e-06    1  ON   126
     udGe_9                -4.456801e-05    1  ON   127
    udGe_10                 1.544736e-05    1  ON   128
    udGe_11                -1.647807e-05    1  ON   129
    udGe_12                 2.346886e-06    1  ON   130
    udGe_13                -3.076489e-05    1  ON   131
    udGe_14                -2.977995e-06    1  ON   132
    udGe_15                 4.270842e-08    1  ON   133
    udGe_16                 7.186842e-05    1  ON   134
    udGe_17                -4.166828e-05    1  ON   135
    udGe_18                 1.339436e-05    1  ON   136
    udGe_19                -1.512274e-06    1  ON   137
    udGe_20                -8.298328e-07    1  ON   138
    udGe_21                -3.416238e-07    1  ON   139
    udGe_22                 7.858094e-08    1  ON   140
    udGe_23                 4.796367e-08    1  ON   141
    udGe_24                 9.969164e-09    1  ON   142
    udGe_25                -4.012051e-09    1  ON   143
     uuSe_0                -4.856852e-06    1  ON   144
     uuSe_1                 1.293551e-05    1  ON   145
     uuSe_2                 6.380349e-06    1  ON   146
     uuSe_3                 9.353997e-06    1  ON   147
     uuSe_4                 3.182077e-07    1  ON   148
     uuSe_5                -9.403781e-07    1  ON   149
     uuSe_6                 2.822138e-05    1  ON   150
     uuSe_7                 4.993180e-06    1  ON   151
     uuSe_8                -1.427722e-06    1  ON   152
     uuSe_9                -1.823659e-05    1  ON   153
    uuSe_10                 3.735861e-06    1  ON   154
    uuSe_11                -4.406000e-06    1  ON   155
    uuSe_12                 1.027083e-06    1  ON   156
    uuSe_13                -1.170038e-05    1  ON   157
    uuSe_14                -1.160401e-06    1  ON   158
    uuSe_15                 3.456145e-09    1  ON   159
    uuSe_16                 2.641272e-05    1  ON   160
    uuSe_17                -1.386969e-05    1  ON   161
    uuSe_18                 3.398183e-06    1  ON   162
    uuSe_19                -5.434428e-07    1  ON   163
    uuSe_20                 4.922825e-07    1  ON   164
    uuSe_21                 1.898132e-08    1  ON   165
    uuSe_22                 2.691021e-08    1  ON   166
    uuSe_23                -1.605940e-07    1  ON   167
    uuSe_24                -1.016820e-08    1  ON   168
    uuSe_25                -1.724322e-09    1  ON   169
     udSe_0                -1.562247e-05    1  ON   170
     udSe_1                 2.609534e-05    1  ON   171
     udSe_2                 2.540094e-05    1  ON   172
     udSe_3                 2.266484e-05    1  ON   173
     udSe_4                 1.459555e-07    1  ON   174
     udSe_5                -2.587585e-06    1  ON   175
     udSe_6                 7.551755e-05    1  ON   176
     udSe_7                 5.162202e-06    1  ON   177
     udSe_8                 2.617305e-06    1  ON   178
     udSe_9                -4.798141e-05    1  ON   179
    udSe_10                 1.175085e-05    1  ON   180
    udSe_11                -1.509163e-05    1  ON   181
    udSe_12                 1.642396e-06    1  ON   182
    udSe_13                -2.224520e-05    1  ON   183
    udSe_14                -2.482610e-06    1  ON   184
    udSe_15                 5.762207e-08    1  ON   185
    udSe_16                 6.718354e-05    1  ON   186
    udSe_17                -3.388268e-05    1  ON   187
    udSe_18                 1.094052e-05    1  ON   188
    udSe_19                -1.288292e-06    1  ON   189
    udSe_20                -2.463782e-06    1  ON   190
    udSe_21                -5.888130e-08    1  ON   191
    udSe_22                 5.145961e-08    1  ON   192
    udSe_23                 4.346159e-07    1  ON   193
    udSe_24                -5.832721e-08    1  ON   194
    udSe_25                 3.078608e-09    1  ON   195

  Updated wavefunction vp file optJ123.s000.vp.h5
  Updated wavefunction xml file optJ123.s000.opt.xml
  QMCLinearOptimizeBatched Execution time = 24.95 secs

=========================================================
  Start QMCLinearOptimizeBatched
  File Root optJ123.s001
=========================================================
  Random walking without drift
 Legacy constructor adding a default LocalEnergyEstimator for the MainEstimator 

=========================================================
  Start VMCBatched
  File Root optJ123.s001
=========================================================
==============================================================
--- Memory usage report : VMCBatched before initialization ---
==============================================================
Available memory on node 0, free + buffers :  947235 MiB
Memory footprint by rank 0 on node 0       :    5994 MiB
==============================================================
VMCBatched Driver running with
             total_walkers     = 3264
             walkers_per_rank  = [51(x64)]
             num_crowds        = 51
  on rank 0, walkers_per_crowd = [1(x51)]

                         steps = 4 (different from input value 0)
                        blocks = 10

VMCBatched Driver collecting samples, samples per rank = 2040
                                      total samples    = 130560

 Using QMCCostFunctionBatched::QMCCostFunctionBatched
 TrialWaveFunction "psi0" has 8 optimizable objects:
   'eGe' optimized
   'eSe' optimized
   'uu' optimized
   'ud' optimized
   'uuGe' optimized
   'udGe' optimized
   'uuSe' optimized
   'udSe' optimized
 Variational subset selects 196 parameters.
 In total 196 parameters being optimized after applying constraints.
 Using Default Cost Function: Cost = <|E-E_ff|^2>

******************
Generating samples
******************

===================================================================
--- Memory usage report : VMCBatched after initialLogEvaluation ---
===================================================================
Available memory on node 0, free + buffers :  947235 MiB
Memory footprint by rank 0 on node 0       :    5994 MiB
===================================================================
=====================================================
--- Memory usage report : VMCBatched after Warmup ---
=====================================================
Available memory on node 0, free + buffers :  947235 MiB
Memory footprint by rank 0 on node 0       :    5994 MiB
=====================================================
VMC Warmup completed in 1.2139e+00 secs
Completed block    1 of 10 average 0.5284 secs/block after 45.92 secs
Completed block    2 of 10 average 0.5286 secs/block after 46.45 secs
Completed block    5 of 10 average 0.5263 secs/block after 48.02 secs
Completed block    7 of 10 average 0.5249 secs/block after 49.07 secs
Completed block   10 of 10 average 0.5243 secs/block after 50.64 secs
====================================================
  End of a VMC section
    QMC counter        = 1
    time step          = 0.3
    reference energy   = -238.786
    reference variance = 1.32977
====================================================
=============================================
--- Memory usage report : VMCBatched ends ---
=============================================
Available memory on node 0, free + buffers :  947236 MiB
Memory footprint by rank 0 on node 0       :    5994 MiB
=============================================
  Carry over 3264 walker configurations to the next QMC driver.
  Execution time (sampling) = 6.5887e+00

*****************************
Compute parameter derivatives
*****************************

 Found 2 wavefunction dependent components in the Hamiltonian 'Kinetic' 'NonLocalECP'.
  VMC Eavg = -2.3879e+02
  VMC Evar = 1.3307e+00
  Total weights = 1.3056e+05
  Execution time (derivatives) = 1.4397e+01

*****************************************
Building overlap and Hamiltonian matrices
*****************************************
  Execution time (building matrices) = 3.0943e-02

**************************
Solving eigenvalue problem
**************************
  Using inverse + regular eigenvalue solver (geev)
  Execution time (eigenvalue) = 1.6925e-02

Among totally 196 optimized parameters, largest LM parameter change : 9.1479e-02 at parameter 27
Effective weight of all the samples measured by correlated sampling is 9.8867e-01

******************************************************************************
Init Cost =  -2.1477e+02    New Cost =  -2.1478e+02  Delta Cost =  -3.6856e-03
******************************************************************************

The new set of parameters is valid. Updating the trial wave function!

*****************************************************************************
Applying the update for shift_i =   1.0000e-02     and shift_s =   6.2500e-02
*****************************************************************************
  Updated wave function parameters:
       Name                        Value Type Use Index
    ------- ---------------------------- ---- --- -----
      eGe_0                -1.434288e+00    1  ON     0
      eGe_1                -1.505306e+00    1  ON     1
      eGe_2                -1.491078e+00    1  ON     2
      eGe_3                -1.454202e+00    1  ON     3
      eGe_4                -1.373652e+00    1  ON     4
      eGe_5                -1.256733e+00    1  ON     5
      eGe_6                -1.119041e+00    1  ON     6
      eGe_7                -9.706879e-01    1  ON     7
      eGe_8                -8.270131e-01    1  ON     8
      eGe_9                -6.981267e-01    1  ON     9
     eGe_10                -5.872114e-01    1  ON    10
     eGe_11                -4.883707e-01    1  ON    11
     eGe_12                -3.955728e-01    1  ON    12
     eGe_13                -3.136648e-01    1  ON    13
     eGe_14                -2.419324e-01    1  ON    14
     eGe_15                -1.819888e-01    1  ON    15
     eGe_16                -1.321044e-01    1  ON    16
     eGe_17                -9.276467e-02    1  ON    17
     eGe_18                -6.184360e-02    1  ON    18
     eGe_19                -3.842293e-02    1  ON    19
     eGe_20                -2.132325e-02    1  ON    20
     eGe_21                -1.025568e-02    1  ON    21
     eGe_22                -3.962044e-03    1  ON    22
      eSe_0                -1.877934e+00    1  ON    23
      eSe_1                -1.941945e+00    1  ON    24
      eSe_2                -1.915105e+00    1  ON    25
      eSe_3                -1.862501e+00    1  ON    26
      eSe_4                -1.723139e+00    1  ON    27
      eSe_5                -1.520507e+00    1  ON    28
      eSe_6                -1.290906e+00    1  ON    29
      eSe_7                -1.063357e+00    1  ON    30
      eSe_8                -8.531734e-01    1  ON    31
      eSe_9                -6.701478e-01    1  ON    32
     eSe_10                -5.191593e-01    1  ON    33
     eSe_11                -3.989340e-01    1  ON    34
     eSe_12                -3.132120e-01    1  ON    35
     eSe_13                -2.429661e-01    1  ON    36
     eSe_14                -1.834507e-01    1  ON    37
     eSe_15                -1.346619e-01    1  ON    38
     eSe_16                -9.570319e-02    1  ON    39
     eSe_17                -6.585299e-02    1  ON    40
     eSe_18                -4.348197e-02    1  ON    41
     eSe_19                -2.637167e-02    1  ON    42
     eSe_20                -1.454595e-02    1  ON    43
     eSe_21                -6.529069e-03    1  ON    44
     eSe_22                -2.377129e-03    1  ON    45
       uu_0                 6.387679e-01    1  ON    46
       uu_1                 5.339651e-01    1  ON    47
       uu_2                 4.446746e-01    1  ON    48
       uu_3                 3.722648e-01    1  ON    49
       uu_4                 3.117188e-01    1  ON    50
       uu_5                 2.599112e-01    1  ON    51
       uu_6                 2.162088e-01    1  ON    52
       uu_7                 1.800973e-01    1  ON    53
       uu_8                 1.505975e-01    1  ON    54
       uu_9                 1.260067e-01    1  ON    55
      uu_10                 1.053090e-01    1  ON    56
      uu_11                 8.779808e-02    1  ON    57
      uu_12                 7.280081e-02    1  ON    58
      uu_13                 5.985684e-02    1  ON    59
      uu_14                 4.872840e-02    1  ON    60
      uu_15                 3.907695e-02    1  ON    61
      uu_16                 3.063174e-02    1  ON    62
      uu_17                 2.328847e-02    1  ON    63
      uu_18                 1.710683e-02    1  ON    64
      uu_19                 1.189836e-02    1  ON    65
      uu_20                 7.779628e-03    1  ON    66
      uu_21                 4.417178e-03    1  ON    67
      uu_22                 2.232933e-03    1  ON    68
       ud_0                 9.867945e-01    1  ON    69
       ud_1                 7.792691e-01    1  ON    70
       ud_2                 6.155741e-01    1  ON    71
       ud_3                 4.875621e-01    1  ON    72
       ud_4                 3.861775e-01    1  ON    73
       ud_5                 3.055711e-01    1  ON    74
       ud_6                 2.433315e-01    1  ON    75
       ud_7                 1.968017e-01    1  ON    76
       ud_8                 1.618247e-01    1  ON    77
       ud_9                 1.345850e-01    1  ON    78
      ud_10                 1.123902e-01    1  ON    79
      ud_11                 9.383205e-02    1  ON    80
      ud_12                 7.781573e-02    1  ON    81
      ud_13                 6.395008e-02    1  ON    82
      ud_14                 5.193907e-02    1  ON    83
      ud_15                 4.160514e-02    1  ON    84
      ud_16                 3.263831e-02    1  ON    85
      ud_17                 2.490998e-02    1  ON    86
      ud_18                 1.835079e-02    1  ON    87
      ud_19                 1.280730e-02    1  ON    88
      ud_20                 8.457024e-03    1  ON    89
      ud_21                 4.849809e-03    1  ON    90
      ud_22                 2.525148e-03    1  ON    91
     uuGe_0                -5.743278e-06    1  ON    92
     uuGe_1                 1.440460e-05    1  ON    93
     uuGe_2                 9.093526e-06    1  ON    94
     uuGe_3                 1.082208e-05    1  ON    95
     uuGe_4                -6.744256e-08    1  ON    96
     uuGe_5                -1.142903e-06    1  ON    97
     uuGe_6                 3.309303e-05    1  ON    98
     uuGe_7                 5.478353e-06    1  ON    99
     uuGe_8                 3.962625e-07    1  ON   100
     uuGe_9                -2.166249e-05    1  ON   101
    uuGe_10                 4.617942e-06    1  ON   102
    uuGe_11                -7.566288e-06    1  ON   103
    uuGe_12                 6.058205e-07    1  ON   104
    uuGe_13                -1.373892e-05    1  ON   105
    uuGe_14                -9.445973e-07    1  ON   106
    uuGe_15                 2.325998e-08    1  ON   107
    uuGe_16                 3.365915e-05    1  ON   108
    uuGe_17                -1.800478e-05    1  ON   109
    uuGe_18                 6.420643e-06    1  ON   110
    uuGe_19                -5.554728e-07    1  ON   111
    uuGe_20                 3.748076e-08    1  ON   112
    uuGe_21                -3.433029e-07    1  ON   113
    uuGe_22                 4.497366e-08    1  ON   114
    uuGe_23                -1.620485e-07    1  ON   115
    uuGe_24                 4.766220e-08    1  ON   116
    uuGe_25                -6.940349e-09    1  ON   117
     udGe_0                -2.330513e-05    1  ON   118
     udGe_1                 9.935947e-06    1  ON   119
     udGe_2                 2.764851e-05    1  ON   120
     udGe_3                 3.996297e-05    1  ON   121
     udGe_4                 1.568671e-06    1  ON   122
     udGe_5                -1.953473e-06    1  ON   123
     udGe_6                 6.674180e-05    1  ON   124
     udGe_7                 1.894219e-05    1  ON   125
     udGe_8                -4.378163e-07    1  ON   126
     udGe_9                -3.936541e-05    1  ON   127
    udGe_10                 2.117912e-05    1  ON   128
    udGe_11                -2.333679e-05    1  ON   129
    udGe_12                 2.772757e-06    1  ON   130
    udGe_13                -4.054037e-05    1  ON   131
    udGe_14                -3.154952e-06    1  ON   132
    udGe_15                 2.851011e-08    1  ON   133
    udGe_16                 7.416583e-05    1  ON   134
    udGe_17                -5.107413e-05    1  ON   135
    udGe_18                 1.843056e-05    1  ON   136
    udGe_19                -1.963121e-06    1  ON   137
    udGe_20                 1.430914e-06    1  ON   138
    udGe_21                -8.040626e-07    1  ON   139
    udGe_22                 1.345697e-07    1  ON   140
    udGe_23                -4.052148e-07    1  ON   141
    udGe_24                 8.658703e-08    1  ON   142
    udGe_25                -1.399432e-08    1  ON   143
     uuSe_0                -4.819798e-06    1  ON   144
     uuSe_1                 1.834973e-05    1  ON   145
     uuSe_2                 6.572772e-06    1  ON   146
     uuSe_3                 7.084072e-06    1  ON   147
     uuSe_4                -1.096420e-07    1  ON   148
     uuSe_5                -1.266082e-06    1  ON   149
     uuSe_6                 3.438815e-05    1  ON   150
     uuSe_7                 1.902747e-06    1  ON   151
     uuSe_8                -1.201704e-06    1  ON   152
     uuSe_9                -2.130355e-05    1  ON   153
    uuSe_10                 1.712601e-06    1  ON   154
    uuSe_11                -2.150205e-06    1  ON   155
    uuSe_12                 7.825882e-07    1  ON   156
    uuSe_13                -9.642931e-06    1  ON   157
    uuSe_14                -1.156134e-06    1  ON   158
    uuSe_15                 2.030790e-08    1  ON   159
    uuSe_16                 2.806970e-05    1  ON   160
    uuSe_17                -1.141867e-05    1  ON   161
    uuSe_18                 1.448285e-06    1  ON   162
    uuSe_19                -3.245676e-07    1  ON   163
    uuSe_20                -2.334224e-07    1  ON   164
    uuSe_21                 2.478467e-07    1  ON   165
    uuSe_22                -4.444366e-09    1  ON   166
    uuSe_23                 2.315970e-08    1  ON   167
    uuSe_24                -5.211074e-08    1  ON   168
    uuSe_25                 4.115278e-09    1  ON   169
     udSe_0                -1.761717e-05    1  ON   170
     udSe_1                 2.285965e-05    1  ON   171
     udSe_2                 2.798627e-05    1  ON   172
     udSe_3                 2.651295e-05    1  ON   173
     udSe_4                 3.714464e-07    1  ON   174
     udSe_5                -2.318518e-06    1  ON   175
     udSe_6                 7.387324e-05    1  ON   176
     udSe_7                 1.035459e-05    1  ON   177
     udSe_8                 4.229395e-06    1  ON   178
     udSe_9                -4.678169e-05    1  ON   179
    udSe_10                 1.453137e-05    1  ON   180
    udSe_11                -1.965838e-05    1  ON   181
    udSe_12                 1.629661e-06    1  ON   182
    udSe_13                -2.558602e-05    1  ON   183
    udSe_14                -2.267772e-06    1  ON   184
    udSe_15                 4.364191e-08    1  ON   185
    udSe_16                 6.921634e-05    1  ON   186
    udSe_17                -3.755429e-05    1  ON   187
    udSe_18                 1.400761e-05    1  ON   188
    udSe_19                -1.534023e-06    1  ON   189
    udSe_20                -2.085574e-06    1  ON   190
    udSe_21                -3.749207e-07    1  ON   191
    udSe_22                 9.341126e-08    1  ON   192
    udSe_23                 4.030321e-07    1  ON   193
    udSe_24                -1.713176e-08    1  ON   194
    udSe_25                -4.322316e-09    1  ON   195

  Updated wavefunction vp file optJ123.s001.vp.h5
  Updated wavefunction xml file optJ123.s001.opt.xml
  QMCLinearOptimizeBatched Execution time = 22.33 secs

=========================================================
  Start QMCLinearOptimizeBatched
  File Root optJ123.s002
=========================================================
  Random walking without drift
 Legacy constructor adding a default LocalEnergyEstimator for the MainEstimator 

=========================================================
  Start VMCBatched
  File Root optJ123.s002
=========================================================
==============================================================
--- Memory usage report : VMCBatched before initialization ---
==============================================================
Available memory on node 0, free + buffers :  947230 MiB
Memory footprint by rank 0 on node 0       :    5994 MiB
==============================================================
VMCBatched Driver running with
             total_walkers     = 3264
             walkers_per_rank  = [51(x64)]
             num_crowds        = 51
  on rank 0, walkers_per_crowd = [1(x51)]

                         steps = 4 (different from input value 0)
                        blocks = 10

VMCBatched Driver collecting samples, samples per rank = 2040
                                      total samples    = 130560

 Using QMCCostFunctionBatched::QMCCostFunctionBatched
 TrialWaveFunction "psi0" has 8 optimizable objects:
   'eGe' optimized
   'eSe' optimized
   'uu' optimized
   'ud' optimized
   'uuGe' optimized
   'udGe' optimized
   'uuSe' optimized
   'udSe' optimized
 Variational subset selects 196 parameters.
 In total 196 parameters being optimized after applying constraints.
 Using Default Cost Function: Cost = <|E-E_ff|^2>

******************
Generating samples
******************

===================================================================
--- Memory usage report : VMCBatched after initialLogEvaluation ---
===================================================================
Available memory on node 0, free + buffers :  947230 MiB
Memory footprint by rank 0 on node 0       :    5994 MiB
===================================================================
=====================================================
--- Memory usage report : VMCBatched after Warmup ---
=====================================================
Available memory on node 0, free + buffers :  947230 MiB
Memory footprint by rank 0 on node 0       :    5994 MiB
=====================================================
VMC Warmup completed in 1.2106e+00 secs
Completed block    1 of 10 average 0.5514 secs/block after 68.27 secs
Completed block    2 of 10 average 0.5451 secs/block after 68.81 secs
Completed block    5 of 10 average 0.5366 secs/block after 70.41 secs
Completed block    7 of 10 average 0.5349 secs/block after 71.47 secs
Completed block   10 of 10 average 0.5333 secs/block after 73.06 secs
====================================================
  End of a VMC section
    QMC counter        = 2
    time step          = 0.3
    reference energy   = -238.794
    reference variance = 1.38734
====================================================
=============================================
--- Memory usage report : VMCBatched ends ---
=============================================
Available memory on node 0, free + buffers :  947229 MiB
Memory footprint by rank 0 on node 0       :    5994 MiB
=============================================
  Carry over 3264 walker configurations to the next QMC driver.
  Execution time (sampling) = 6.6811e+00

*****************************
Compute parameter derivatives
*****************************

 Found 2 wavefunction dependent components in the Hamiltonian 'Kinetic' 'NonLocalECP'.
  VMC Eavg = -2.3879e+02
  VMC Evar = 1.3876e+00
  Total weights = 1.3056e+05
  Execution time (derivatives) = 1.4637e+01

*****************************************
Building overlap and Hamiltonian matrices
*****************************************
  Execution time (building matrices) = 3.1441e-02

**************************
Solving eigenvalue problem
**************************
  Using inverse + regular eigenvalue solver (geev)
  Execution time (eigenvalue) = 1.7441e-02

Among totally 196 optimized parameters, largest LM parameter change : 3.2399e-02 at parameter 25
Effective weight of all the samples measured by correlated sampling is 9.9694e-01

******************************************************************************
Init Cost =  -2.1477e+02    New Cost =  -2.1478e+02  Delta Cost =  -6.1833e-04
******************************************************************************

The new set of parameters is valid. Updating the trial wave function!

*****************************************************************************
Applying the update for shift_i =   1.0000e-02     and shift_s =   1.5625e-02
*****************************************************************************
  Updated wave function parameters:
       Name                        Value Type Use Index
    ------- ---------------------------- ---- --- -----
      eGe_0                -1.440729e+00    1  ON     0
      eGe_1                -1.523638e+00    1  ON     1
      eGe_2                -1.510132e+00    1  ON     2
      eGe_3                -1.473391e+00    1  ON     3
      eGe_4                -1.389674e+00    1  ON     4
      eGe_5                -1.268669e+00    1  ON     5
      eGe_6                -1.126329e+00    1  ON     6
      eGe_7                -9.746810e-01    1  ON     7
      eGe_8                -8.277848e-01    1  ON     8
      eGe_9                -6.965472e-01    1  ON     9
     eGe_10                -5.840259e-01    1  ON    10
     eGe_11                -4.852459e-01    1  ON    11
     eGe_12                -3.929482e-01    1  ON    12
     eGe_13                -3.108829e-01    1  ON    13
     eGe_14                -2.391671e-01    1  ON    14
     eGe_15                -1.790830e-01    1  ON    15
     eGe_16                -1.293016e-01    1  ON    16
[...]
    udGe_24                 8.979471e-08    1  ON   142
    udGe_25                -1.428197e-08    1  ON   143
     uuSe_0                -5.229444e-06    1  ON   144
     uuSe_1                 1.575130e-05    1  ON   145
     uuSe_2                 7.879903e-06    1  ON   146
     uuSe_3                 9.843353e-06    1  ON   147
     uuSe_4                 1.955051e-07    1  ON   148
     uuSe_5                -8.486938e-07    1  ON   149
     uuSe_6                 3.313281e-05    1  ON   150
     uuSe_7                 4.339207e-06    1  ON   151
     uuSe_8                -5.057536e-07    1  ON   152
     uuSe_9                -2.151453e-05    1  ON   153
    uuSe_10                 3.907668e-06    1  ON   154
    uuSe_11                -5.247887e-06    1  ON   155
    uuSe_12                 8.971924e-07    1  ON   156
    uuSe_13                -1.164540e-05    1  ON   157
    uuSe_14                -1.104992e-06    1  ON   158
    uuSe_15                 8.364796e-09    1  ON   159
    uuSe_16                 3.004847e-05    1  ON   160
    uuSe_17                -1.453269e-05    1  ON   161
    uuSe_18                 3.909396e-06    1  ON   162
    uuSe_19                -5.539875e-07    1  ON   163
    uuSe_20                 4.321108e-08    1  ON   164
    uuSe_21                -2.445214e-08    1  ON   165
    uuSe_22                 3.191765e-08    1  ON   166
    uuSe_23                -4.488393e-08    1  ON   167
    uuSe_24                -6.023807e-09    1  ON   168
    uuSe_25                -2.948486e-09    1  ON   169
     udSe_0                -1.820975e-05    1  ON   170
     udSe_1                 2.523020e-05    1  ON   171
     udSe_2                 2.870925e-05    1  ON   172
     udSe_3                 2.595276e-05    1  ON   173
     udSe_4                 3.218014e-07    1  ON   174
     udSe_5                -2.401200e-06    1  ON   175
     udSe_6                 7.867133e-05    1  ON   176
     udSe_7                 6.542324e-06    1  ON   177
     udSe_8                 3.469798e-06    1  ON   178
     udSe_9                -4.900441e-05    1  ON   179
    udSe_10                 1.405762e-05    1  ON   180
    udSe_11                -1.747420e-05    1  ON   181
    udSe_12                 1.759886e-06    1  ON   182
    udSe_13                -2.473894e-05    1  ON   183
    udSe_14                -2.663180e-06    1  ON   184
    udSe_15                 6.528935e-08    1  ON   185
    udSe_16                 7.053912e-05    1  ON   186
    udSe_17                -3.711978e-05    1  ON   187
    udSe_18                 1.248577e-05    1  ON   188
    udSe_19                -1.449047e-06    1  ON   189
    udSe_20                -2.461562e-06    1  ON   190
    udSe_21                -1.194479e-07    1  ON   191
    udSe_22                 6.341308e-08    1  ON   192
    udSe_23                 4.937708e-07    1  ON   193
    udSe_24                -5.689527e-08    1  ON   194
    udSe_25                 1.903720e-09    1  ON   195

  Updated wavefunction vp file optJ123.s008.vp.h5
  Updated wavefunction xml file optJ123.s008.opt.xml
  QMCLinearOptimizeBatched Execution time = 22.78 secs

=========================================================
  Start QMCLinearOptimizeBatched
  File Root optJ123.s009
=========================================================
  Random walking without drift
 Legacy constructor adding a default LocalEnergyEstimator for the MainEstimator 

=========================================================
  Start VMCBatched
  File Root optJ123.s009
=========================================================
==============================================================
--- Memory usage report : VMCBatched before initialization ---
==============================================================
Available memory on node 0, free + buffers :  947111 MiB
Memory footprint by rank 0 on node 0       :    5994 MiB
==============================================================
VMCBatched Driver running with
             total_walkers     = 3264
             walkers_per_rank  = [51(x64)]
             num_crowds        = 51
  on rank 0, walkers_per_crowd = [1(x51)]

                         steps = 4 (different from input value 0)
                        blocks = 10

VMCBatched Driver collecting samples, samples per rank = 2040
                                      total samples    = 130560

 Using QMCCostFunctionBatched::QMCCostFunctionBatched
 TrialWaveFunction "psi0" has 8 optimizable objects:
   'eGe' optimized
   'eSe' optimized
   'uu' optimized
   'ud' optimized
   'uuGe' optimized
   'udGe' optimized
   'uuSe' optimized
   'udSe' optimized
 Variational subset selects 196 parameters.
 In total 196 parameters being optimized after applying constraints.
 Using Default Cost Function: Cost = <|E-E_ff|^2>

******************
Generating samples
******************

===================================================================
--- Memory usage report : VMCBatched after initialLogEvaluation ---
===================================================================
Available memory on node 0, free + buffers :  947111 MiB
Memory footprint by rank 0 on node 0       :    5994 MiB
===================================================================
=====================================================
--- Memory usage report : VMCBatched after Warmup ---
=====================================================
Available memory on node 0, free + buffers :  947111 MiB
Memory footprint by rank 0 on node 0       :    5994 MiB
=====================================================
VMC Warmup completed in 1.2333e+00 secs
Completed block    1 of 10 average 0.5454 secs/block after 227.4 secs
Completed block    2 of 10 average 0.5442 secs/block after 228 secs
Completed block    5 of 10 average 0.5395 secs/block after 229.6 secs
Completed block    7 of 10 average 0.5386 secs/block after 230.7 secs
Completed block   10 of 10 average 0.5368 secs/block after 232.3 secs
====================================================
  End of a VMC section
    QMC counter        = 9
    time step          = 0.3
    reference energy   = -238.798
    reference variance = 1.37729
====================================================
=============================================
--- Memory usage report : VMCBatched ends ---
=============================================
Available memory on node 0, free + buffers :  947112 MiB
Memory footprint by rank 0 on node 0       :    5994 MiB
=============================================
  Carry over 3264 walker configurations to the next QMC driver.
  Execution time (sampling) = 6.8454e+00

*****************************
Compute parameter derivatives
*****************************

 Found 2 wavefunction dependent components in the Hamiltonian 'Kinetic' 'NonLocalECP'.
  VMC Eavg = -2.3880e+02
  VMC Evar = 1.3780e+00
  Total weights = 1.3056e+05
  Execution time (derivatives) = 1.4375e+01

*****************************************
Building overlap and Hamiltonian matrices
*****************************************
  Execution time (building matrices) = 3.1203e-02

**************************
Solving eigenvalue problem
**************************
  Using inverse + regular eigenvalue solver (geev)
  Execution time (eigenvalue) = 1.6846e-02

Among totally 196 optimized parameters, largest LM parameter change : 1.0650e-02 at parameter 23
Effective weight of all the samples measured by correlated sampling is 9.9751e-01

******************************************************************************
Init Cost =  -2.1478e+02    New Cost =  -2.1478e+02  Delta Cost =  -1.3521e-03
******************************************************************************

The new set of parameters is valid. Updating the trial wave function!

*****************************************************************************
Applying the update for shift_i =   1.0000e-02     and shift_s =   3.9062e-03
*****************************************************************************
  Updated wave function parameters:
       Name                        Value Type Use Index
    ------- ---------------------------- ---- --- -----
      eGe_0                -1.451878e+00    1  ON     0
      eGe_1                -1.530992e+00    1  ON     1
      eGe_2                -1.518118e+00    1  ON     2
      eGe_3                -1.479475e+00    1  ON     3
      eGe_4                -1.393325e+00    1  ON     4
      eGe_5                -1.268916e+00    1  ON     5
      eGe_6                -1.123925e+00    1  ON     6
      eGe_7                -9.708227e-01    1  ON     7
      eGe_8                -8.237010e-01    1  ON     8
      eGe_9                -6.925138e-01    1  ON     9
     eGe_10                -5.805022e-01    1  ON    10
     eGe_11                -4.823175e-01    1  ON    11
     eGe_12                -3.902524e-01    1  ON    12
     eGe_13                -3.081958e-01    1  ON    13
     eGe_14                -2.363212e-01    1  ON    14
     eGe_15                -1.758881e-01    1  ON    15
     eGe_16                -1.263723e-01    1  ON    16
     eGe_17                -8.769226e-02    1  ON    17
     eGe_18                -5.777834e-02    1  ON    18
     eGe_19                -3.518980e-02    1  ON    19
     eGe_20                -1.909998e-02    1  ON    20
     eGe_21                -8.964964e-03    1  ON    21
     eGe_22                -3.328511e-03    1  ON    22
      eSe_0                -1.986846e+00    1  ON    23
      eSe_1                -2.039102e+00    1  ON    24
      eSe_2                -2.007128e+00    1  ON    25
      eSe_3                -1.948718e+00    1  ON    26
      eSe_4                -1.804121e+00    1  ON    27
      eSe_5                -1.595604e+00    1  ON    28
      eSe_6                -1.356971e+00    1  ON    29
      eSe_7                -1.117180e+00    1  ON    30
      eSe_8                -8.931162e-01    1  ON    31
      eSe_9                -6.970587e-01    1  ON    32
     eSe_10                -5.375022e-01    1  ON    33
     eSe_11                -4.131547e-01    1  ON    34
     eSe_12                -3.257485e-01    1  ON    35
     eSe_13                -2.535004e-01    1  ON    36
     eSe_14                -1.917419e-01    1  ON    37
     eSe_15                -1.408174e-01    1  ON    38
     eSe_16                -1.000953e-01    1  ON    39
     eSe_17                -6.877975e-02    1  ON    40
     eSe_18                -4.522158e-02    1  ON    41
     eSe_19                -2.737670e-02    1  ON    42
     eSe_20                -1.500540e-02    1  ON    43
     eSe_21                -6.738846e-03    1  ON    44
     eSe_22                -2.369445e-03    1  ON    45
       uu_0                 6.385372e-01    1  ON    46
       uu_1                 5.304381e-01    1  ON    47
       uu_2                 4.419731e-01    1  ON    48
       uu_3                 3.696833e-01    1  ON    49
       uu_4                 3.094815e-01    1  ON    50
       uu_5                 2.584975e-01    1  ON    51
       uu_6                 2.152947e-01    1  ON    52
       uu_7                 1.796059e-01    1  ON    53
       uu_8                 1.503957e-01    1  ON    54
       uu_9                 1.261244e-01    1  ON    55
      uu_10                 1.057118e-01    1  ON    56
      uu_11                 8.845653e-02    1  ON    57
      uu_12                 7.354297e-02    1  ON    58
      uu_13                 6.067770e-02    1  ON    59
      uu_14                 4.951046e-02    1  ON    60
      uu_15                 3.982544e-02    1  ON    61
      uu_16                 3.129796e-02    1  ON    62
      uu_17                 2.395419e-02    1  ON    63
      uu_18                 1.764665e-02    1  ON    64
      uu_19                 1.236423e-02    1  ON    65
      uu_20                 8.081965e-03    1  ON    66
      uu_21                 4.622396e-03    1  ON    67
      uu_22                 2.371849e-03    1  ON    68
       ud_0                 9.874745e-01    1  ON    69
       ud_1                 7.797106e-01    1  ON    70
       ud_2                 6.158183e-01    1  ON    71
       ud_3                 4.878375e-01    1  ON    72
       ud_4                 3.867045e-01    1  ON    73
       ud_5                 3.063072e-01    1  ON    74
       ud_6                 2.441960e-01    1  ON    75
       ud_7                 1.977467e-01    1  ON    76
       ud_8                 1.629923e-01    1  ON    77
       ud_9                 1.359847e-01    1  ON    78
      ud_10                 1.139685e-01    1  ON    79
      ud_11                 9.539790e-02    1  ON    80
      ud_12                 7.931845e-02    1  ON    81
      ud_13                 6.537831e-02    1  ON    82
      ud_14                 5.321947e-02    1  ON    83
      ud_15                 4.253583e-02    1  ON    84
      ud_16                 3.323828e-02    1  ON    85
      ud_17                 2.521648e-02    1  ON    86
      ud_18                 1.839402e-02    1  ON    87
      ud_19                 1.277471e-02    1  ON    88
      ud_20                 8.311497e-03    1  ON    89
      ud_21                 4.699354e-03    1  ON    90
      ud_22                 2.432058e-03    1  ON    91
     uuGe_0                -4.843195e-06    1  ON    92
     uuGe_1                 1.300442e-05    1  ON    93
     uuGe_2                 6.507107e-06    1  ON    94
     uuGe_3                 9.033079e-06    1  ON    95
     uuGe_4                -1.259454e-07    1  ON    96
     uuGe_5                -9.082299e-07    1  ON    97
     uuGe_6                 2.596454e-05    1  ON    98
     uuGe_7                 7.891014e-06    1  ON    99
     uuGe_8                 1.895608e-07    1  ON   100
     uuGe_9                -1.688254e-05    1  ON   101
    uuGe_10                 3.336157e-06    1  ON   102
    uuGe_11                -6.419831e-06    1  ON   103
    uuGe_12                 4.205437e-07    1  ON   104
    uuGe_13                -1.251106e-05    1  ON   105
    uuGe_14                -5.314637e-07    1  ON   106
    uuGe_15                 3.906256e-09    1  ON   107
    uuGe_16                 2.659863e-05    1  ON   108
    uuGe_17                -1.417121e-05    1  ON   109
    uuGe_18                 5.092552e-06    1  ON   110
    uuGe_19                -4.134165e-07    1  ON   111
    uuGe_20                 7.166446e-07    1  ON   112
    uuGe_21                -3.538505e-07    1  ON   113
    uuGe_22                 4.538966e-08    1  ON   114
    uuGe_23                -3.008836e-07    1  ON   115
    uuGe_24                 6.105979e-08    1  ON   116
    uuGe_25                -9.046593e-09    1  ON   117
     udGe_0                -2.072738e-05    1  ON   118
     udGe_1                 1.400427e-05    1  ON   119
     udGe_2                 2.511724e-05    1  ON   120
     udGe_3                 3.721986e-05    1  ON   121
     udGe_4                 1.507204e-06    1  ON   122
     udGe_5                -2.090838e-06    1  ON   123
     udGe_6                 6.778266e-05    1  ON   124
     udGe_7                 1.576765e-05    1  ON   125
     udGe_8                -1.578796e-06    1  ON   126
     udGe_9                -4.136565e-05    1  ON   127
    udGe_10                 1.929376e-05    1  ON   128
    udGe_11                -2.025352e-05    1  ON   129
    udGe_12                 2.739867e-06    1  ON   130
    udGe_13                -3.776924e-05    1  ON   131
    udGe_14                -3.136076e-06    1  ON   132
    udGe_15                 2.694442e-08    1  ON   133
    udGe_16                 7.377451e-05    1  ON   134
    udGe_17                -4.773112e-05    1  ON   135
    udGe_18                 1.619565e-05    1  ON   136
    udGe_19                -1.785698e-06    1  ON   137
    udGe_20                 7.796047e-07    1  ON   138
    udGe_21                -6.059592e-07    1  ON   139
    udGe_22                 1.125602e-07    1  ON   140
    udGe_23                -2.796563e-07    1  ON   141
    udGe_24                 5.710812e-08    1  ON   142
    udGe_25                -1.040685e-08    1  ON   143
     uuSe_0                -6.071799e-06    1  ON   144
     uuSe_1                 1.508064e-05    1  ON   145
     uuSe_2                 7.794176e-06    1  ON   146
     uuSe_3                 9.771464e-06    1  ON   147
     uuSe_4                 1.227496e-07    1  ON   148
     uuSe_5                -8.175222e-07    1  ON   149
     uuSe_6                 3.266335e-05    1  ON   150
     uuSe_7                 4.116279e-06    1  ON   151
     uuSe_8                -1.024767e-06    1  ON   152
     uuSe_9                -2.001089e-05    1  ON   153
    uuSe_10                 3.590503e-06    1  ON   154
    uuSe_11                -4.218811e-06    1  ON   155
    uuSe_12                 9.068284e-07    1  ON   156
    uuSe_13                -1.213422e-05    1  ON   157
    uuSe_14                -1.228105e-06    1  ON   158
    uuSe_15                 1.951341e-08    1  ON   159
    uuSe_16                 2.841766e-05    1  ON   160
    uuSe_17                -1.430388e-05    1  ON   161
    uuSe_18                 3.075311e-06    1  ON   162
    uuSe_19                -4.439616e-07    1  ON   163
    uuSe_20                 4.870044e-07    1  ON   164
    uuSe_21                 8.483935e-08    1  ON   165
    uuSe_22                 1.025364e-08    1  ON   166
    uuSe_23                -1.424706e-07    1  ON   167
    uuSe_24                -2.119626e-08    1  ON   168
    uuSe_25                 1.013688e-09    1  ON   169
     udSe_0                -1.751084e-05    1  ON   170
     udSe_1                 2.580986e-05    1  ON   171
     udSe_2                 2.838946e-05    1  ON   172
     udSe_3                 2.537687e-05    1  ON   173
     udSe_4                 1.415078e-07    1  ON   174
     udSe_5                -2.348361e-06    1  ON   175
     udSe_6                 7.846067e-05    1  ON   176
     udSe_7                 7.602969e-06    1  ON   177
     udSe_8                 4.176328e-06    1  ON   178
     udSe_9                -4.983947e-05    1  ON   179
    udSe_10                 1.352759e-05    1  ON   180
    udSe_11                -1.812518e-05    1  ON   181
    udSe_12                 1.528995e-06    1  ON   182
    udSe_13                -2.392759e-05    1  ON   183
    udSe_14                -2.349336e-06    1  ON   184
    udSe_15                 5.747611e-08    1  ON   185
    udSe_16                 7.159956e-05    1  ON   186
    udSe_17                -3.636852e-05    1  ON   187
    udSe_18                 1.282506e-05    1  ON   188
    udSe_19                -1.397510e-06    1  ON   189
    udSe_20                -3.020907e-06    1  ON   190
    udSe_21                -2.105169e-07    1  ON   191
    udSe_22                 6.904930e-08    1  ON   192
    udSe_23                 6.656093e-07    1  ON   193
    udSe_24                -5.188963e-08    1  ON   194
    udSe_25                 9.494116e-10    1  ON   195

  Updated wavefunction vp file optJ123.s009.vp.h5
  Updated wavefunction xml file optJ123.s009.opt.xml
  QMCLinearOptimizeBatched Execution time = 22.59 secs
  Total Execution time = 229 secs

=========================================================
  A new xml input file : optJ123.s009.cont.xml

Use --enable-timers=<value> command line option to increase or decrease level of timing information
Stack timer profile
Timer                       Inclusive_time  Exclusive_time  Calls       Time_per_call
Total                        246.7912     0.0248              1     246.791237648
  QMCLinearOptimizeBatched   228.9873   228.9873             10      22.898727708
  Startup                     17.7792    17.7792              1      17.779160404

QMCPACK execution completed successfully
