 CRYSTAL
 PRIMVEC
     2.16852761   -1.25200000    0.00000000
     0.00000000    2.50400000    0.00000000
     0.00000000    0.00000000   17.00000000
 PRIMCOORD
   2 1
     5   0.72284254    1.25200000    8.50000000
     7   0.00000000    0.00000000    8.50000000
