
     Program PWSCF v.7.4.1 starts on 15Jul2025 at 18: 5:37 
        Git branch: HEAD
        Last git commit: 500de340b820e1cb8c05f2d8bb8fced102f377c1
        Last git commit date: Fri Feb 7 14:59:05 2025 +0000
        Last git commit subject: Merge branch 'qe-7.4.1' into 'master'

     This program is part of the open-source Quantum ESPRESSO suite
     for quantum simulation of materials; please cite
         "P. Giannozzi et al., J. Phys.:Condens. Matter 21 395502 (2009);
         "P. Giannozzi et al., J. Phys.:Condens. Matter 29 465901 (2017);
         "P. Giannozzi et al., J. Chem. Phys. 152 154105 (2020);
          URL http://www.quantum-espresso.org", 
     in publications or presentations arising from this work. More details at
     http://www.quantum-espresso.org/quote

     Parallel version (MPI & OpenMP), running on    3328 processor cores
     Number of MPI processes:               832
     Threads/MPI process:                     4

     MPI processes distributed on    32 nodes
     1042152 MiB available memory on the printing compute node when the environment starts
 
     Reading input from scf.in

     Current dimensions of program PWSCF are:
     Max number of different atomic species (ntypx) = 10
     Max number of k-points (npk) =  40000
     Max angular momentum in pseudopotentials (lmaxx) =  4
scan_end: No INFO end statement, corrupted file?
scan_end: No INFO end statement, corrupted file?

     IMPORTANT: XC functional enforced from input :
     Exchange-correlation= PBE
                           (   1   4   3   4   0   0   0)
     Any further DFT definition will be discarded
     Please, verify this is what you really want

     Message from routine setup:
     using ibrav=0 with symmetry is DISCOURAGED, use correct ibrav instead
 
     K-points division:     npool     =       8
     R & G space division:  proc/nbgrp/npool/nimage =     104
     Subspace diagonalization in iterative solution of the eigenvalue problem:
     a serial algorithm will be used

 
     Parallelization info
     --------------------
     sticks:   dense  smooth     PW     G-vecs:    dense   smooth      PW
     Min          63      63     17                10347    10347    1417
     Max          64      64     18                10366    10366    1429
     Sum        6655    6655   1779              1077557  1077557  148079
 
     Using Slab Decomposition
 


     bravais-lattice index     =            0
     lattice parameter (alat)  =       8.2770  a.u.
     unit-cell volume          =    1218.3036 (a.u.)^3
     number of atoms/cell      =            8
     number of atomic types    =            2
     number of electrons       =        40.00
     number of Kohn-Sham states=           24
     kinetic-energy cutoff     =     350.0000  Ry
     charge density cutoff     =    1400.0000  Ry
     scf convergence threshold =      1.0E-06
     mixing beta               =       0.5000
     number of iterations used =            8  plain     mixing
     Exchange-correlation= PBE
                           (   1   4   3   4   0   0   0)

     celldm(1)=   8.277000  celldm(2)=   0.000000  celldm(3)=   0.000000
     celldm(4)=   0.000000  celldm(5)=   0.000000  celldm(6)=   0.000000

     crystal axes: (cart. coord. in units of alat)
               a(1) = (   1.000000   0.000000   0.000000 )  
               a(2) = (   0.000000   0.872146   0.000000 )  
               a(3) = (   0.000000   0.000000   2.463470 )  

     reciprocal axes: (cart. coord. in units 2 pi/alat)
               b(1) = (  1.000000  0.000000  0.000000 )  
               b(2) = (  0.000000  1.146597  0.000000 )  
               b(3) = (  0.000000  0.000000  0.405931 )  


     PseudoPot. # 1 for Ge read from file:
     ./Ge.ccECP.upf
     MD5 check sum: adc484e85c05e28535f307d63fefdf4c
     Pseudo is Norm-conserving, Zval =  4.0
     Generated by new atomic code, or converted to UPF format
     Using radial grid of 1165 points,  2 beta functions with: 
                l(1) =   0
                l(2) =   2

     PseudoPot. # 2 for Se read from file:
     ./Se.ccECP.upf
     MD5 check sum: ed96248b8b63a926de99498f0ddda5f0
     Pseudo is Norm-conserving, Zval =  6.0
     Generated by new atomic code, or converted to UPF format
     Using radial grid of 1167 points,  2 beta functions with: 
                l(1) =   1
                l(2) =   2

     atomic species   valence    mass     pseudopotential
     Ge                4.00    72.61000     Ge( 1.00)
     Se                6.00    78.96000     Se( 1.00)

     Starting magnetic structure 
     atomic species   magnetization
     Ge              0.200
     Se              0.000

      8 Sym. Ops., with inversion, found ( 6 have fractional translation)



   Cartesian axes

     site n.     atom                  positions (alat units)
         1        Ge     tau(   1) = (   0.1060000   0.2180365   2.1653904  )
         2        Ge     tau(   2) = (   0.3940000   0.2180365   0.9336553  )
         3        Ge     tau(   3) = (   0.8940000   0.6541096   0.2980799  )
         4        Ge     tau(   4) = (   0.6060000   0.6541096   1.5298151  )
         5        Se     tau(   5) = (   0.5030000   0.2180365   0.3645936  )
         6        Se     tau(   6) = (   0.9970000   0.2180365   1.5963288  )
         7        Se     tau(   7) = (   0.4970000   0.6541096   2.0988767  )
         8        Se     tau(   8) = (   0.0030000   0.6541096   0.8671416  )

     number of k points=   125  Fermi-Dirac smearing, width (Ry)=  0.0010

     Number of k-points >= 100: set verbosity='high' to print them.

     Dense  grid:  1077557 G-vectors     FFT dimensions: ( 100,  90, 250)

     Estimated max dynamical RAM per process >      30.31 MB

     Estimated total dynamical RAM >      21.03 GB
     Generating pointlists ...
     new r_m :   0.2390 (alat units)  1.9782 (a.u.) for type    1
     new r_m :   0.2390 (alat units)  1.9782 (a.u.) for type    2

     Initial potential from superposition of free atoms

     starting charge      34.4482, renormalised to      40.0000
     Starting wfcs are   72 randomized atomic wfcs

     total cpu time spent up to now is        5.9 secs

     per-process dynamical memory:   365.7 Mb

     Self-consistent Calculation

     iteration #  1     ecut=   350.00 Ry     beta= 0.50
     Davidson diagonalization with overlap
     ethr =  1.00E-02,  avg # of iterations =  2.6

     total cpu time spent up to now is        9.9 secs

     total energy              =    -106.13379575 Ry
     estimated scf accuracy    <       1.21988896 Ry

     total magnetization       =     0.03 Bohr mag/cell
     absolute magnetization    =     0.88 Bohr mag/cell

     iteration #  2     ecut=   350.00 Ry     beta= 0.50
     Davidson diagonalization with overlap
     ethr =  3.05E-03,  avg # of iterations =  4.1

     total cpu time spent up to now is       13.5 secs

     total energy              =    -106.56564027 Ry
     estimated scf accuracy    <       0.08289586 Ry

     total magnetization       =     0.00 Bohr mag/cell
     absolute magnetization    =     0.40 Bohr mag/cell

     iteration #  3     ecut=   350.00 Ry     beta= 0.50
     Davidson diagonalization with overlap
     ethr =  2.07E-04,  avg # of iterations =  6.4

     total cpu time spent up to now is       18.5 secs

     total energy              =    -106.59686580 Ry
     estimated scf accuracy    <       0.04468647 Ry

     total magnetization       =     0.00 Bohr mag/cell
     absolute magnetization    =     0.30 Bohr mag/cell

     iteration #  4     ecut=   350.00 Ry     beta= 0.50
     Davidson diagonalization with overlap
     ethr =  1.12E-04,  avg # of iterations =  3.0

     negative rho (up, down):  4.773E-08 2.957E-09

     total cpu time spent up to now is       21.8 secs

     total energy              =    -106.61053967 Ry
     estimated scf accuracy    <       0.00423713 Ry

     total magnetization       =     0.00 Bohr mag/cell
     absolute magnetization    =     0.24 Bohr mag/cell

     iteration #  5     ecut=   350.00 Ry     beta= 0.50
     Davidson diagonalization with overlap
     c_bands:  2 eigenvalues not converged
     c_bands:  3 eigenvalues not converged
     c_bands:  1 eigenvalues not converged
     c_bands:  1 eigenvalues not converged
     c_bands:  1 eigenvalues not converged
     c_bands:  2 eigenvalues not converged
     c_bands:  2 eigenvalues not converged
     c_bands:  1 eigenvalues not converged
     c_bands:  1 eigenvalues not converged
     c_bands:  2 eigenvalues not converged
     c_bands:  2 eigenvalues not converged
     c_bands:  2 eigenvalues not converged
     c_bands:  2 eigenvalues not converged
     c_bands:  2 eigenvalues not converged
     c_bands:  3 eigenvalues not converged
     c_bands:  2 eigenvalues not converged
     ethr =  1.06E-05,  avg # of iterations = 12.2

     total cpu time spent up to now is       28.3 secs

     total energy              =    -106.61134415 Ry
     estimated scf accuracy    <       0.00228328 Ry

     total magnetization       =     0.00 Bohr mag/cell
     absolute magnetization    =     0.10 Bohr mag/cell

     iteration #  6     ecut=   350.00 Ry     beta= 0.50
     Davidson diagonalization with overlap
     c_bands:  1 eigenvalues not converged
     c_bands:  2 eigenvalues not converged
     c_bands:  1 eigenvalues not converged
     ethr =  5.71E-06,  avg # of iterations =  6.9

     total cpu time spent up to now is       32.7 secs

     total energy              =    -106.61205037 Ry
     estimated scf accuracy    <       0.00006145 Ry

     total magnetization       =     0.00 Bohr mag/cell
     absolute magnetization    =     0.08 Bohr mag/cell

     iteration #  7     ecut=   350.00 Ry     beta= 0.50
     Davidson diagonalization with overlap
     c_bands:  1 eigenvalues not converged
     c_bands:  2 eigenvalues not converged
     c_bands:  1 eigenvalues not converged
     c_bands:  2 eigenvalues not converged
     ethr =  1.54E-07,  avg # of iterations = 10.8

     total cpu time spent up to now is       39.8 secs

     total energy              =    -106.61214674 Ry
     estimated scf accuracy    <       0.00007713 Ry

     total magnetization       =     0.00 Bohr mag/cell
     absolute magnetization    =     0.02 Bohr mag/cell

     iteration #  8     ecut=   350.00 Ry     beta= 0.50
     Davidson diagonalization with overlap
     c_bands:  1 eigenvalues not converged
     c_bands:  1 eigenvalues not converged
     ethr =  1.54E-07,  avg # of iterations =  3.5

     total cpu time spent up to now is       43.4 secs

     total energy              =    -106.61216488 Ry
     estimated scf accuracy    <       0.00001372 Ry

     total magnetization       =     0.00 Bohr mag/cell
     absolute magnetization    =     0.02 Bohr mag/cell

     iteration #  9     ecut=   350.00 Ry     beta= 0.50
     Davidson diagonalization with overlap
     ethr =  3.43E-08,  avg # of iterations =  4.3

     total cpu time spent up to now is       47.5 secs

     total energy              =    -106.61216928 Ry
     estimated scf accuracy    <       0.00001099 Ry

     total magnetization       =     0.00 Bohr mag/cell
     absolute magnetization    =     0.01 Bohr mag/cell

     iteration # 10     ecut=   350.00 Ry     beta= 0.50
     Davidson diagonalization with overlap
     ethr =  2.75E-08,  avg # of iterations =  2.0

     total cpu time spent up to now is       50.1 secs

     total energy              =    -106.61217073 Ry
     estimated scf accuracy    <       0.00000146 Ry

     total magnetization       =     0.00 Bohr mag/cell
     absolute magnetization    =     0.01 Bohr mag/cell

     iteration # 11     ecut=   350.00 Ry     beta= 0.50
     Davidson diagonalization with overlap
     ethr =  3.64E-09,  avg # of iterations =  7.2

     total cpu time spent up to now is       56.2 secs

     total energy              =    -106.61217216 Ry
     estimated scf accuracy    <       0.00000249 Ry

     total magnetization       =     0.00 Bohr mag/cell
     absolute magnetization    =     0.00 Bohr mag/cell

     iteration # 12     ecut=   350.00 Ry     beta= 0.50
     Davidson diagonalization with overlap
     ethr =  3.64E-09,  avg # of iterations =  2.6
 
     Magnetic moment per site  (integrated on atomic sphere of radius R)
     atom   1 (R=0.239)  charge=  1.8713  magn=  0.0001
     atom   2 (R=0.239)  charge=  1.8713  magn=  0.0001
     atom   3 (R=0.239)  charge=  1.8713  magn=  0.0001
     atom   4 (R=0.239)  charge=  1.8713  magn=  0.0001
     atom   5 (R=0.239)  charge=  3.8186  magn= -0.0001
     atom   6 (R=0.239)  charge=  3.8186  magn= -0.0001
     atom   7 (R=0.239)  charge=  3.8186  magn= -0.0001
     atom   8 (R=0.239)  charge=  3.8186  magn= -0.0001

     total cpu time spent up to now is       59.3 secs

     End of self-consistent calculation

     Number of k-points >= 100: set verbosity='high' to print the bands.

     the Fermi energy is     6.7111 ev

!    total energy              =    -106.61217277 Ry
     estimated scf accuracy    <       0.00000002 Ry
     smearing contrib. (-TS)   =      -0.00000000 Ry
     internal energy E=F+TS    =    -106.61217277 Ry

     The total energy is F=E-TS. E is the sum of the following terms:
     one-electron contribution =      17.80695363 Ry
     hartree contribution      =       8.70794222 Ry
     xc contribution           =     -25.77934688 Ry
     ewald contribution        =    -107.34772173 Ry

     total magnetization       =    -0.00 Bohr mag/cell
     absolute magnetization    =     0.00 Bohr mag/cell

     convergence has been achieved in  12 iterations

     Writing all to output data dir pwscf_output/pwscf.save/ :
     XML data file, charge density, pseudopotentials, collected wavefunctions
 
     init_run     :     15.56s CPU      4.41s WALL (       1 calls)
     electrons    :    206.88s CPU     53.63s WALL (       1 calls)

     Called by init_run:
     wfcinit      :     11.91s CPU      3.07s WALL (       1 calls)
     potinit      :      2.95s CPU      0.89s WALL (       1 calls)
     hinit0       :      0.41s CPU      0.12s WALL (       1 calls)

     Called by electrons:
     c_bands      :    183.42s CPU     47.54s WALL (      12 calls)
     sum_band     :     20.93s CPU      5.37s WALL (      12 calls)
     v_of_rho     :      3.00s CPU      0.77s WALL (      13 calls)
     mix_rho      :      0.64s CPU      0.18s WALL (      12 calls)

     Called by c_bands:
     init_us_2    :      1.75s CPU      0.46s WALL (     800 calls)
     cegterg      :    127.88s CPU     32.73s WALL (     384 calls)

     Called by *egterg:
     cdiaghg      :     12.38s CPU      3.19s WALL (    2908 calls)
     h_psi        :    116.79s CPU     29.99s WALL (    2940 calls)
     g_psi        :      0.08s CPU      0.04s WALL (    2524 calls)

     Called by h_psi:
     h_psi:calbec :      3.85s CPU      0.94s WALL (    2940 calls)
     vloc_psi     :    111.83s CPU     28.66s WALL (    2940 calls)
     add_vuspsi   :      0.93s CPU      0.32s WALL (    2940 calls)

     General routines
     calbec       :      3.83s CPU      0.93s WALL (    2940 calls)
     fft          :      2.65s CPU      0.69s WALL (     244 calls)
     ffts         :      0.08s CPU      0.02s WALL (      24 calls)
     fftw         :    113.69s CPU     28.99s WALL (   78618 calls)
 
     Parallel routines
 
     PWSCF        :   4m 3.68s CPU   1m 5.50s WALL

 
   This run was terminated on:  18: 6:42  15Jul2025            

=------------------------------------------------------------------------------=
   JOB DONE.
=------------------------------------------------------------------------------=
