
     Program PWSCF v.7.4.1 starts on 15Jul2025 at 18:14:24 
        Git branch: HEAD
        Last git commit: 500de340b820e1cb8c05f2d8bb8fced102f377c1
        Last git commit date: Fri Feb 7 14:59:05 2025 +0000
        Last git commit subject: Merge branch 'qe-7.4.1' into 'master'

     This program is part of the open-source Quantum ESPRESSO suite
     for quantum simulation of materials; please cite
         "P. Giannozzi et al., J. Phys.:Condens. Matter 21 395502 (2009);
         "P. Giannozzi et al., J. Phys.:Condens. Matter 29 465901 (2017);
         "P. Giannozzi et al., J. Chem. Phys. 152 154105 (2020);
          URL http://www.quantum-espresso.org", 
     in publications or presentations arising from this work. More details at
     http://www.quantum-espresso.org/quote

     Parallel version (MPI & OpenMP), running on    3328 processor cores
     Number of MPI processes:               832
     Threads/MPI process:                     4

     MPI processes distributed on    32 nodes
     986398 MiB available memory on the printing compute node when the environment starts
 
     Reading input from nscf.in

     Current dimensions of program PWSCF are:
     Max number of different atomic species (ntypx) = 10
     Max number of k-points (npk) =  40000
     Max angular momentum in pseudopotentials (lmaxx) =  4
scan_end: No INFO end statement, corrupted file?
scan_end: No INFO end statement, corrupted file?

     IMPORTANT: XC functional enforced from input :
     Exchange-correlation= PBE
                           (   1   4   3   4   0   0   0)
     Any further DFT definition will be discarded
     Please, verify this is what you really want


     Atomic positions and unit cell read from directory:
     pwscf_output/pwscf.save/
 
 
     K-points division:     npool     =       2
     R & G space division:  proc/nbgrp/npool/nimage =     416
     WARNING: too many processors for an effective parallelization!
     wavefunctions fft division:  task group distribution
                                  #TG    x Z-proc =       8     52
     Subspace diagonalization in iterative solution of the eigenvalue problem:
     a serial algorithm will be used

 
     Parallelization info
     --------------------
     sticks:   dense  smooth     PW     G-vecs:    dense   smooth      PW
     Min          15      15      4                 2557     2557     300
     Max          16      16      6                 2602     2602     334
     Sum        6655    6655   1667              1077557  1077557  134739
 
     Using Pencil Decomposition
 


     bravais-lattice index     =            0
     lattice parameter (alat)  =       8.2770  a.u.
     unit-cell volume          =    1218.3036 (a.u.)^3
     number of atoms/cell      =            8
     number of atomic types    =            2
     number of electrons       =        40.00
     number of Kohn-Sham states=           24
     kinetic-energy cutoff     =     350.0000  Ry
     charge density cutoff     =    1400.0000  Ry
     Exchange-correlation= PBE
                           (   1   4   3   4   0   0   0)

     celldm(1)=   8.277000  celldm(2)=   0.000000  celldm(3)=   0.000000
     celldm(4)=   0.000000  celldm(5)=   0.000000  celldm(6)=   0.000000

     crystal axes: (cart. coord. in units of alat)
               a(1) = (   1.000000   0.000000   0.000000 )  
               a(2) = (   0.000000   0.872146   0.000000 )  
               a(3) = (   0.000000   0.000000   2.463470 )  

     reciprocal axes: (cart. coord. in units 2 pi/alat)
               b(1) = (  1.000000  0.000000  0.000000 )  
               b(2) = (  0.000000  1.146597  0.000000 )  
               b(3) = (  0.000000  0.000000  0.405931 )  


     PseudoPot. # 1 for Ge read from file:
     ./Ge.ccECP.upf
     MD5 check sum: adc484e85c05e28535f307d63fefdf4c
     Pseudo is Norm-conserving, Zval =  4.0
     Generated by new atomic code, or converted to UPF format
     Using radial grid of 1165 points,  2 beta functions with: 
                l(1) =   0
                l(2) =   2

     PseudoPot. # 2 for Se read from file:
     ./Se.ccECP.upf
     MD5 check sum: ed96248b8b63a926de99498f0ddda5f0
     Pseudo is Norm-conserving, Zval =  6.0
     Generated by new atomic code, or converted to UPF format
     Using radial grid of 1167 points,  2 beta functions with: 
                l(1) =   1
                l(2) =   2

     atomic species   valence    mass     pseudopotential
     Ge                4.00    72.61000     Ge( 1.00)
     Se                6.00    78.96000     Se( 1.00)

     Starting magnetic structure 
     atomic species   magnetization
     Ge              0.200
     Se              0.000

     No symmetry found



   Cartesian axes

     site n.     atom                  positions (alat units)
         1        Ge     tau(   1) = (   0.1060000   0.2180365   2.1653904  )
         2        Ge     tau(   2) = (   0.3940000   0.2180365   0.9336553  )
         3        Ge     tau(   3) = (   0.8940000   0.6541096   0.2980799  )
         4        Ge     tau(   4) = (   0.6060000   0.6541096   1.5298151  )
         5        Se     tau(   5) = (   0.5030000   0.2180365   0.3645936  )
         6        Se     tau(   6) = (   0.9970000   0.2180365   1.5963288  )
         7        Se     tau(   7) = (   0.4970000   0.6541096   2.0988767  )
         8        Se     tau(   8) = (   0.0030000   0.6541096   0.8671416  )

     number of k points=     1  Fermi-Dirac smearing, width (Ry)=  0.0010
                       cart. coord. in units 2pi/alat
        k(    1) = (   0.0000000   0.0000000   0.0000000), wk =   1.0000000

     Dense  grid:  1077557 G-vectors     FFT dimensions: ( 100,  90, 243)

     Estimated max dynamical RAM per process >      16.44 MB

     Estimated total dynamical RAM >       2.66 GB
     Generating pointlists ...
     new r_m :   0.2390 (alat units)  1.9782 (a.u.) for type    1
     new r_m :   0.2390 (alat units)  1.9782 (a.u.) for type    2

     The potential is recalculated from file :
     pwscf_output/pwscf.save/charge-density

     Starting wfcs are   72 randomized atomic wfcs

     Band Structure Calculation
     Davidson diagonalization with overlap

     ethr =  2.50E-09,  avg # of iterations =102.0

     total cpu time spent up to now is        5.0 secs

     End of band structure calculation

 ------ SPIN UP ------------


          k = 0.0000 0.0000 0.0000 (134739 PWs)   bands (ev):

    -8.2247  -7.8381  -6.7443  -6.1171  -1.6990  -0.9829   0.5216   1.0317
     1.2349   2.3756   2.5925   2.7406   2.8693   3.3248   4.2408   4.4260
     4.9504   5.2833   5.5151   6.2945   7.0371   8.9632   9.0933   9.1862

 ------ SPIN DOWN ----------


          k = 0.0000 0.0000 0.0000 (134739 PWs)   bands (ev):

    -8.2247  -7.8382  -6.7445  -6.1173  -1.6988  -0.9827   0.5216   1.0318
     1.2349   2.3756   2.5924   2.7405   2.8692   3.3247   4.2407   4.4259
     4.9503   5.2833   5.5150   6.2945   7.0372   8.9633   9.0934   9.1864

     the Fermi energy is     6.6976 ev
     (compare with:     6.7111 eV, computed in scf)

     Writing all to output data dir pwscf_output/pwscf.save/ :
     XML data file, pseudopotentials, collected wavefunctions
 
     init_run     :      2.42s CPU      1.01s WALL (       1 calls)
     electrons    :      8.15s CPU      2.25s WALL (       1 calls)

     Called by init_run:
     wfcinit      :      0.10s CPU      0.03s WALL (       1 calls)
     potinit      :      1.16s CPU      0.46s WALL (       1 calls)
     hinit0       :      0.94s CPU      0.29s WALL (       1 calls)

     Called by electrons:
     c_bands      :      8.15s CPU      2.24s WALL (       1 calls)
     v_of_rho     :      0.17s CPU      0.04s WALL (       1 calls)

     Called by c_bands:
     init_us_2    :      0.00s CPU      0.00s WALL (       1 calls)
     cegterg      :      6.64s CPU      1.71s WALL (       6 calls)

     Called by *egterg:
     cdiaghg      :      0.79s CPU      0.21s WALL (     103 calls)
     h_psi        :      5.89s CPU      1.52s WALL (     109 calls)
     g_psi        :      0.00s CPU      0.00s WALL (     102 calls)

     Called by h_psi:
     h_psi:calbec :      0.25s CPU      0.06s WALL (     109 calls)
     vloc_psi     :      5.64s CPU      1.45s WALL (     109 calls)
     vloc_psi:tg_ :      0.00s CPU      0.00s WALL (     109 calls)
     add_vuspsi   :      0.01s CPU      0.00s WALL (     109 calls)

     General routines
     calbec       :      0.25s CPU      0.06s WALL (     109 calls)
     fft          :      0.98s CPU      0.29s WALL (      18 calls)
     fftw         :      5.52s CPU      1.41s WALL (    2322 calls)
     davcio       :      0.01s CPU      0.00s WALL (       2 calls)
 
     Parallel routines
     fft_scatt_xy :      0.02s CPU      0.02s WALL (    2340 calls)
     fft_scatt_yz :      6.37s CPU      1.59s WALL (    2340 calls)
     fft_scatt_tg :      0.01s CPU      0.01s WALL (    2322 calls)
 
     PWSCF        :     13.58s CPU      5.73s WALL

 
   This run was terminated on:  18:14:29  15Jul2025            

=------------------------------------------------------------------------------=
   JOB DONE.
=------------------------------------------------------------------------------=
